/*--------------------------------*- C++ -*----------------------------------*\
| =========                 |                                                 |
| \\      /  F ield         | OpenFOAM: The Open Source CFD Toolbox           |
|  \\    /   O peration     | Version:  2206                                  |
|   \\  /    A nd           | Website:  www.openfoam.com                      |
|    \\/     M anipulation  |                                                 |
\*---------------------------------------------------------------------------*/
FoamFile
{
    version     2.0;
    format      ascii;
    arch        "LSB;label=32;scalar=64";
    class       volScalarField;
    location    "0";
    object      T;
}
// * * * * * * * * * * * * * * * * * * * * * * * * * * * * * * * * * * * * * //

dimensions      [0 0 0 1 0 0 0];

internalField   nonuniform List<scalar> 
114354
(
6.17577e-05
3.67179e-05
3.51211e-05
3.75488e-05
3.76934e-05
2.99025e-05
5.84105e-05
6.0938e-05
6.26389e-05
6.43497e-05
6.57859e-05
3.5455e-05
3.40864e-05
3.30605e-05
3.06287e-05
2.81667e-05
2.90007e-05
3.29491e-05
3.6252e-05
4.92923e-05
5.29196e-05
5.58981e-05
5.84461e-05
6.07602e-05
6.21386e-05
6.31084e-05
6.3726e-05
6.42766e-05
6.36476e-05
6.25015e-05
6.27406e-05
6.38105e-05
6.53897e-05
6.71748e-05
6.77321e-05
3.70132e-05
4.86635e-05
5.18375e-05
5.46187e-05
5.7042e-05
5.9211e-05
6.07406e-05
6.16806e-05
6.21763e-05
6.23906e-05
6.19365e-05
6.12319e-05
6.11199e-05
6.1977e-05
6.32298e-05
6.45736e-05
6.54899e-05
6.57629e-05
3.0395e-05
1.42564e-05
1.56688e-05
1.76083e-05
1.94347e-05
2.10888e-05
2.02365e-05
4.77348e-05
4.96356e-05
5.21525e-05
5.4121e-05
5.59804e-05
5.77274e-05
5.96395e-05
6.06294e-05
6.09799e-05
6.0975e-05
6.0523e-05
5.9854e-05
5.96461e-05
6.02582e-05
6.13676e-05
6.24377e-05
6.31271e-05
6.36862e-05
6.38713e-05
3.06262e-05
2.99137e-05
3.29312e-05
1.29195e-05
2.29231e-05
2.73049e-05
3.30337e-05
3.86704e-05
4.36379e-05
4.72066e-05
4.94741e-05
5.14325e-05
5.29819e-05
5.43055e-05
5.54951e-05
5.68164e-05
5.87812e-05
5.97312e-05
5.9935e-05
5.98109e-05
5.93208e-05
5.86476e-05
5.83754e-05
5.88185e-05
5.9877e-05
6.08168e-05
6.13254e-05
6.17228e-05
6.15807e-05
6.13877e-05
6.20844e-05
6.29475e-05
6.56515e-05
6.74738e-05
4.07703e-05
1.77792e-05
2.16163e-05
2.8324e-05
3.4602e-05
4.01319e-05
4.57462e-05
4.96697e-05
5.1556e-05
5.32607e-05
5.43267e-05
5.47882e-05
5.53313e-05
5.64944e-05
5.81221e-05
5.89571e-05
5.90338e-05
5.87953e-05
5.83025e-05
5.76686e-05
5.73821e-05
5.76255e-05
5.85692e-05
5.95268e-05
5.99422e-05
5.99856e-05
5.98186e-05
5.99395e-05
6.06642e-05
6.16827e-05
6.34633e-05
6.5327e-05
6.8871e-05
3.96796e-05
1.54346e-05
1.95536e-05
2.62774e-05
3.34863e-05
4.16709e-05
4.85702e-05
5.14395e-05
5.33161e-05
5.53667e-05
5.5589e-05
5.55432e-05
5.56529e-05
5.63557e-05
5.7359e-05
5.8208e-05
5.8226e-05
5.79005e-05
5.73977e-05
5.68285e-05
5.66205e-05
5.67737e-05
5.75168e-05
5.83392e-05
5.86456e-05
5.85106e-05
5.84457e-05
5.87558e-05
5.94534e-05
6.03954e-05
6.17758e-05
6.35085e-05
6.66154e-05
7.09536e-05
4.27401e-05
5.93675e-06
1.77262e-05
2.44449e-05
3.13954e-05
3.95241e-05
4.73568e-05
5.1795e-05
5.46952e-05
5.75501e-05
5.65991e-05
5.59883e-05
5.59415e-05
5.63499e-05
5.68677e-05
5.75795e-05
5.75564e-05
5.72263e-05
5.66956e-05
5.61694e-05
5.60467e-05
5.61535e-05
5.65956e-05
5.71938e-05
5.73275e-05
5.72915e-05
5.74709e-05
5.78722e-05
5.85065e-05
5.92886e-05
6.05445e-05
6.22927e-05
6.51848e-05
6.95036e-05
7.69379e-05
4.85803e-05
2.4165e-06
5.45848e-06
2.20662e-05
2.93321e-05
3.75484e-05
4.46718e-05
5.03335e-05
5.34783e-05
5.6409e-05
5.65768e-05
5.58029e-05
5.59012e-05
5.65005e-05
5.68479e-05
5.71543e-05
5.70986e-05
5.67762e-05
5.62007e-05
5.57252e-05
5.56443e-05
5.56978e-05
5.5805e-05
5.62356e-05
5.63172e-05
5.64026e-05
5.67199e-05
5.71121e-05
5.76771e-05
5.84422e-05
5.95224e-05
6.13784e-05
6.45009e-05
6.91753e-05
7.61704e-05
4.91723e-05
2.6868e-06
1.93493e-05
2.82934e-05
3.56535e-05
4.29795e-05
4.88404e-05
5.23477e-05
5.49403e-05
5.5699e-05
5.56451e-05
5.59898e-05
5.67478e-05
5.69213e-05
5.68186e-05
5.66664e-05
5.6352e-05
5.58411e-05
5.54172e-05
5.53502e-05
5.53573e-05
5.52985e-05
5.55398e-05
5.5678e-05
5.58494e-05
5.618e-05
5.65769e-05
5.72011e-05
5.81086e-05
5.88618e-05
6.06591e-05
6.4143e-05
6.89444e-05
7.60147e-05
8.4077e-05
8.33199e-05
1.46218e-06
7.28625e-06
1.31936e-05
3.3718e-05
4.13685e-05
4.72815e-05
5.06663e-05
5.35556e-05
5.49531e-05
5.55952e-05
5.6339e-05
5.67709e-05
5.67719e-05
5.655e-05
5.62582e-05
5.59363e-05
5.55518e-05
5.52205e-05
5.51157e-05
5.50755e-05
5.50285e-05
5.51286e-05
5.52902e-05
5.54882e-05
5.58069e-05
5.62666e-05
5.68353e-05
5.76596e-05
5.88415e-05
6.10581e-05
6.46442e-05
6.95198e-05
7.64284e-05
8.74397e-05
5.85339e-05
5.13239e-06
1.06714e-05
3.17811e-05
3.88727e-05
4.56472e-05
4.93968e-05
5.2518e-05
5.43436e-05
5.52777e-05
5.62073e-05
5.6394e-05
5.63159e-05
5.6207e-05
5.596e-05
5.56579e-05
5.53588e-05
5.50961e-05
5.49599e-05
5.49224e-05
5.49327e-05
5.50071e-05
5.52755e-05
5.53627e-05
5.57239e-05
5.62651e-05
5.68665e-05
5.78853e-05
5.97487e-05
6.24402e-05
6.58112e-05
7.05852e-05
7.74958e-05
8.67289e-05
6.31625e-05
3.23857e-06
7.39782e-06
1.00084e-05
3.14878e-05
3.8711e-05
4.49858e-05
4.89278e-05
5.17548e-05
5.35947e-05
5.47075e-05
5.55235e-05
5.57333e-05
5.57473e-05
5.57145e-05
5.55355e-05
5.53455e-05
5.52314e-05
5.5008e-05
5.48737e-05
5.48712e-05
5.49534e-05
5.50663e-05
5.55012e-05
5.5496e-05
5.6041e-05
5.67751e-05
5.75392e-05
5.89489e-05
6.10865e-05
6.40579e-05
6.76924e-05
7.26897e-05
7.97525e-05
5.14051e-05
8.7891e-05
5.09182e-06
1.50274e-05
1.97232e-05
2.48276e-05
3.3221e-05
4.06872e-05
4.61843e-05
4.9451e-05
5.1634e-05
5.31371e-05
5.41456e-05
5.47668e-05
5.50758e-05
5.51881e-05
5.53453e-05
5.52987e-05
5.52268e-05
5.51566e-05
5.49668e-05
5.48619e-05
5.48694e-05
5.50103e-05
5.52258e-05
5.54051e-05
5.6042e-05
5.66184e-05
5.71016e-05
5.83061e-05
6.03373e-05
6.28052e-05
6.61976e-05
7.01525e-05
7.54205e-05
8.38078e-05
5.08044e-05
1.50463e-05
1.76785e-05
2.19257e-05
2.88825e-05
3.71631e-05
4.3607e-05
4.82234e-05
5.10731e-05
5.29633e-05
5.3916e-05
5.43399e-05
5.47133e-05
5.50451e-05
5.51311e-05
5.54194e-05
5.54753e-05
5.54206e-05
5.52432e-05
5.50015e-05
5.4917e-05
5.49196e-05
5.50745e-05
5.47972e-05
5.57508e-05
5.66645e-05
5.67491e-05
5.84149e-05
6.00426e-05
6.20785e-05
6.51418e-05
6.89218e-05
7.31532e-05
7.91827e-05
8.8055e-05
5.76446e-05
6.75779e-06
1.53835e-05
1.91417e-05
2.47958e-05
3.29789e-05
4.08703e-05
4.7007e-05
5.07721e-05
5.31225e-05
5.44409e-05
5.47804e-05
5.48119e-05
5.50865e-05
5.53395e-05
5.54296e-05
5.53819e-05
5.57853e-05
5.56714e-05
5.54014e-05
5.50955e-05
5.5078e-05
5.51226e-05
5.52975e-05
5.57134e-05
5.60704e-05
5.58958e-05
5.71872e-05
5.93922e-05
6.15216e-05
6.442e-05
6.80858e-05
7.23452e-05
7.76716e-05
8.43025e-05
5.22133e-05
7.13052e-06
1.67694e-05
2.07625e-05
2.70558e-05
3.7261e-05
4.51469e-05
5.0282e-05
5.27707e-05
5.46294e-05
5.54946e-05
5.5487e-05
5.52224e-05
5.53125e-05
5.55145e-05
5.53937e-05
5.58974e-05
5.62732e-05
5.59869e-05
5.58396e-05
5.54374e-05
5.52915e-05
5.54081e-05
5.56509e-05
5.60673e-05
5.68382e-05
5.78061e-05
6.1044e-05
6.12058e-05
6.30264e-05
6.7018e-05
7.24054e-05
7.79294e-05
8.35224e-05
5.01559e-05
1.45584e-05
1.79205e-05
2.34095e-05
3.05574e-05
4.14132e-05
4.83028e-05
5.19481e-05
5.47418e-05
5.62416e-05
5.65303e-05
5.6009e-05
5.55246e-05
5.52614e-05
5.53368e-05
5.57493e-05
5.6276e-05
5.5933e-05
5.61952e-05
5.62836e-05
5.60196e-05
5.57092e-05
5.57885e-05
5.61223e-05
5.6659e-05
5.74537e-05
5.87932e-05
6.00416e-05
6.14628e-05
6.65243e-05
7.22042e-05
7.6706e-05
4.65078e-05
4.92902e-05
7.72719e-05
1.47542e-05
1.79696e-05
2.37692e-05
3.09944e-05
3.94187e-05
4.67336e-05
5.12272e-05
5.47023e-05
5.63788e-05
5.67633e-05
5.63044e-05
5.58509e-05
5.5392e-05
5.51995e-05
5.56423e-05
5.60718e-05
5.62045e-05
5.64074e-05
5.64855e-05
5.63573e-05
5.61445e-05
5.62619e-05
5.6677e-05
5.7346e-05
5.83144e-05
5.97118e-05
6.18316e-05
6.5551e-05
2.99956e-05
3.34588e-05
4.15233e-05
6.84341e-05
8.32391e-06
1.7786e-05
2.30233e-05
3.03939e-05
3.86738e-05
4.6176e-05
5.11603e-05
5.40255e-05
5.51789e-05
5.56971e-05
5.55636e-05
5.51211e-05
5.46462e-05
5.45481e-05
5.51112e-05
5.60768e-05
5.66321e-05
5.69043e-05
5.69653e-05
5.66536e-05
5.64631e-05
5.67594e-05
5.73608e-05
5.81536e-05
5.93067e-05
6.09787e-05
6.30888e-05
3.1799e-05
2.07099e-05
1.09728e-05
1.27648e-05
2.90952e-05
3.70104e-05
4.6362e-05
5.03963e-05
5.27352e-05
5.37215e-05
5.42229e-05
5.41984e-05
5.35788e-05
5.312e-05
5.35537e-05
5.46044e-05
5.63062e-05
5.71703e-05
5.74628e-05
5.75573e-05
5.72639e-05
5.71526e-05
5.73139e-05
5.80147e-05
5.90753e-05
6.04303e-05
6.24547e-05
6.53367e-05
3.45948e-05
2.32973e-05
2.88408e-05
2.25252e-05
4.79774e-05
5.0671e-05
5.17922e-05
5.23737e-05
5.23497e-05
5.15505e-05
5.13835e-05
5.26409e-05
5.47059e-05
5.66947e-05
5.7701e-05
5.80744e-05
5.82717e-05
5.8054e-05
5.78247e-05
5.80632e-05
5.86746e-05
5.991e-05
6.17825e-05
6.45195e-05
6.81969e-05
3.43911e-05
2.24238e-05
5.01005e-05
4.94701e-05
5.00989e-05
4.99966e-05
4.89422e-05
4.93082e-05
5.17335e-05
5.49777e-05
5.71575e-05
5.83433e-05
5.88731e-05
5.92473e-05
5.90923e-05
5.8775e-05
5.89422e-05
5.9716e-05
6.17966e-05
6.45113e-05
6.62592e-05
7.17541e-05
3.80434e-05
2.16993e-05
4.64326e-05
4.75629e-05
4.78354e-05
4.67401e-05
4.68386e-05
5.06026e-05
5.49149e-05
5.75939e-05
5.91159e-05
5.99488e-05
6.04185e-05
6.01977e-05
5.98274e-05
5.97562e-05
6.02597e-05
6.15557e-05
6.35809e-05
6.6718e-05
7.40923e-05
4.30922e-05
2.02389e-05
4.31597e-05
4.47903e-05
4.62144e-05
4.76077e-05
4.82239e-05
5.05333e-05
5.4784e-05
5.78651e-05
5.99685e-05
6.12906e-05
6.18101e-05
6.1461e-05
6.08641e-05
6.03491e-05
6.03927e-05
6.13971e-05
6.38586e-05
6.87981e-05
7.51195e-05
4.61724e-05
4.03668e-05
4.19007e-05
4.17269e-05
4.41091e-05
4.75934e-05
5.09269e-05
5.45431e-05
5.78546e-05
6.07841e-05
6.27214e-05
6.34914e-05
6.3083e-05
6.19479e-05
6.06951e-05
6.04131e-05
6.14095e-05
6.41345e-05
6.95305e-05
4.30304e-05
6.72009e-05
3.84876e-05
4.1145e-05
4.11792e-05
4.36615e-05
4.70983e-05
5.02756e-05
5.39408e-05
5.7868e-05
6.20994e-05
6.48862e-05
6.58284e-05
6.51716e-05
6.33764e-05
6.03196e-05
3.07431e-05
3.06458e-05
3.30344e-05
3.49527e-05
4.3132e-05
2.37953e-05
3.97401e-05
4.03006e-05
4.22652e-05
4.57563e-05
4.91596e-05
5.33974e-05
5.71059e-05
3.57535e-05
3.474e-05
3.31555e-05
3.45413e-05
3.56664e-05
3.13575e-05
2.87936e-05
2.84097e-05
4.0654e-05
2.43106e-05
2.05494e-05
2.15468e-05
2.44792e-05
2.60934e-05
2.87147e-05
3.2357e-05
4.80573e-05
3.28424e-05
3.48909e-05
0.00016041
0.000165776
0.000170213
0.000153673
0.000158959
0.000131309
0.000161281
0.000165688
0.000170574
0.000176206
0.000181777
0.000186285
0.000162936
0.000165656
0.000160922
0.000149937
0.000165239
0.000171227
0.000170646
0.000173731
0.00015779
0.000160677
0.000164854
0.000169028
0.000174033
0.000179134
0.000183432
0.000186863
0.000188352
0.000188569
0.000189025
0.000191742
0.000193277
0.000193942
0.000191991
0.00016634
0.000121658
0.000156774
0.000160662
0.000164217
0.000167685
0.000172339
0.000176852
0.000180019
0.000182091
0.000183088
0.000183208
0.000183484
0.00018477
0.000185971
0.000187196
0.000187283
0.000189499
0.00016808
4.91072e-05
5.72759e-05
6.8484e-05
8.24077e-05
9.70422e-05
0.000106252
0.000115072
0.00015479
0.000158306
0.000161582
0.000164387
0.000167147
0.000171236
0.000174958
0.000177105
0.000178201
0.000178597
0.000178331
0.000178299
0.000179091
0.000180145
0.000181528
0.000181962
0.000183678
0.000185907
0.000157726
0.000160639
0.000162944
0.000165595
0.000177086
3.99901e-05
5.66827e-05
7.00393e-05
8.88772e-05
0.000108817
0.000127146
0.00014085
0.000150629
0.000156969
0.000160731
0.000162876
0.000164799
0.000167231
0.000170528
0.000173384
0.00017464
0.000175037
0.000174887
0.000174207
0.000174007
0.000174622
0.000175723
0.00017699
0.000177673
0.000178618
0.000179668
0.00018071
0.000182958
0.000185322
0.000187242
0.000189877
0.000165802
0.000179104
4.26629e-05
5.70937e-05
7.23659e-05
9.30838e-05
0.000116658
0.000134278
0.000147618
0.00015614
0.000161106
0.000163523
0.000164754
0.000165533
0.000167563
0.000169877
0.000171906
0.000172435
0.000172366
0.000171856
0.000170971
0.000170661
0.000171074
0.000172187
0.000173327
0.000174052
0.000174618
0.000175228
0.000176089
0.000177908
0.000179965
0.000182312
0.000185114
0.000189866
0.000198467
0.000178728
3.26939e-05
4.38575e-05
7.2578e-05
9.4701e-05
0.000119879
0.00014028
0.000154607
0.00016095
0.000165006
0.000166455
0.00016683
0.000166811
0.000167764
0.000169098
0.000170494
0.000170546
0.000170146
0.000169424
0.000168477
0.000168111
0.000168289
0.000169204
0.000170176
0.000170684
0.000171099
0.000171701
0.000172588
0.000174198
0.000176046
0.000178488
0.000181627
0.000186862
0.000195189
0.00020786
0.000193071
4.14773e-05
7.16139e-05
9.38584e-05
0.000118946
0.000140386
0.000155823
0.000164063
0.000168452
0.00016932
0.000168244
0.000167756
0.000167811
0.000168607
0.000169289
0.000168941
0.000168273
0.000167394
0.000166487
0.000166138
0.00016617
0.000166719
0.000167374
0.000167655
0.000168075
0.000168882
0.000169873
0.000171303
0.000172973
0.000175277
0.0001788
0.000184633
0.000193724
0.00020711
0.000226749
5.39113e-05
9.23432e-05
0.000117218
0.000138748
0.000154303
0.000164286
0.00016943
0.000170054
0.000168553
0.000168187
0.000168022
0.000168139
0.000168055
0.000167516
0.000166784
0.000165896
0.000165035
0.000164594
0.000164501
0.000164681
0.000165078
0.00016533
0.000165788
0.000166652
0.000167718
0.000169007
0.000170686
0.000172913
0.000176729
0.000183066
0.000192759
0.0002066
0.000226451
0.000217484
4.86472e-05
6.89443e-05
0.000114161
0.000136764
0.000152337
0.000162388
0.000167569
0.000168853
0.000168055
0.000167948
0.000168321
0.000167717
0.000166938
0.000166449
0.000165843
0.000164884
0.000163946
0.000163421
0.000163235
0.000163166
0.000163415
0.000163721
0.000164223
0.00016503
0.000166179
0.000167594
0.00016962
0.000171559
0.000175596
0.000182919
0.000193057
0.000207089
0.000226001
0.000213425
5.96014e-05
8.35995e-05
0.000136795
0.000150414
0.000160325
0.000165934
0.000168112
0.000168455
0.000168537
0.000168364
0.000167097
0.000166119
0.000166071
0.000164852
0.000163954
0.000163118
0.000162511
0.000162241
0.000162111
0.000162277
0.000162609
0.000163158
0.000163994
0.000165188
0.000166776
0.000168891
0.000171752
0.000176714
0.000184371
0.000194708
0.000208886
0.000227876
0.000217953
6.72597e-05
9.84965e-05
0.000148416
0.000158124
0.000163924
0.000167091
0.000168109
0.00016833
0.000167767
0.000166799
0.000165554
0.000164761
0.000163932
0.000163327
0.000162633
0.0001619
0.000161663
0.000161621
0.000161784
0.000162207
0.000162937
0.000163979
0.000165338
0.000167127
0.000169475
0.000173683
0.000179588
0.000187086
0.000197386
0.00021173
0.000231731
0.000218413
6.00247e-05
9.42368e-05
0.000146242
0.000156745
0.000162152
0.000165375
0.000166484
0.000166971
0.000166696
0.00016579
0.000165118
0.000164195
0.00016385
0.000162479
0.000161867
0.000161585
0.000161484
0.000161625
0.000161885
0.00016243
0.00016344
0.000164904
0.000166858
0.000169122
0.000172183
0.000176887
0.000183278
0.000191002
0.0002017
0.000217031
0.000239003
0.000225316
3.05665e-05
3.95233e-05
5.3715e-05
7.65319e-05
0.000131059
0.000146961
0.000157094
0.00016216
0.000164394
0.000165081
0.000165675
0.000165692
0.00016522
0.000164623
0.000163722
0.000163494
0.000162535
0.000161894
0.000161511
0.00016142
0.00016178
0.000162316
0.000163049
0.000164281
0.000166208
0.000169104
0.000172269
0.000176073
0.000181494
0.000188371
0.000196276
0.000207646
0.000223457
0.000244672
0.000232713
2.9085e-05
4.65768e-05
6.44677e-05
9.079e-05
0.000119586
0.000139525
0.000151892
0.000160421
0.00016461
0.000165399
0.000165366
0.000165629
0.000165519
0.000165115
0.000164703
0.000163594
0.000163417
0.000162678
0.000161985
0.000161712
0.000161659
0.000162058
0.000162928
0.000164113
0.000165666
0.000168239
0.000171643
0.000176044
0.000181265
0.000187365
0.000194747
0.000203541
0.000215533
0.000232349
0.000214622
0.000257067
2.73633e-05
4.01015e-05
5.08793e-05
7.03618e-05
9.76238e-05
0.000126193
0.000145872
0.00015669
0.000163696
0.000166759
0.000166765
0.000166205
0.000166239
0.000165692
0.000165035
0.000164832
0.000164305
0.000164237
0.000163085
0.000162295
0.000162125
0.000162228
0.00016267
0.000163691
0.000165339
0.000167593
0.000171056
0.000175989
0.00018208
0.00018825
0.000195681
0.000204005
0.00021345
0.000225194
0.000242562
0.000230298
2.8987e-05
4.1592e-05
5.42599e-05
7.67037e-05
0.000105455
0.000132482
0.000150481
0.000160809
0.000166571
0.000168615
0.00016786
0.000166966
0.000166602
0.00016538
0.000164755
0.000163979
0.000163794
0.000164034
0.000163745
0.000163019
0.000162766
0.000163054
0.000163723
0.000164859
0.000166803
0.000170485
0.000174701
0.000180745
0.000189343
0.000197457
0.000206987
0.000216412
0.000226857
0.000237198
0.000217676
2.95883e-05
4.25922e-05
5.70444e-05
8.14764e-05
0.000110744
0.000135012
0.000152038
0.000162784
0.000168997
0.000169724
0.000168445
0.000167571
0.000166462
0.000164637
0.000164457
0.000164086
0.000164094
0.000164338
0.000164379
0.000164035
0.000163756
0.000164143
0.000165065
0.000166527
0.000168772
0.000172031
0.000176677
0.000186358
0.000198594
0.000210021
0.000222758
0.00023328
0.000245589
0.000216475
2.94644e-05
4.33392e-05
5.96209e-05
8.61922e-05
0.000113983
0.000136984
0.000153133
0.000163286
0.000168757
0.000169052
0.00016794
0.000166932
0.000165495
0.000163904
0.000164068
0.000164505
0.00016484
0.000165266
0.000165162
0.000165058
0.000163192
0.000165168
0.00016673
0.000168577
0.000171318
0.00017548
0.00018161
0.00019245
0.000168962
0.000179607
0.000197332
0.000216372
0.000235715
2.9324e-05
4.37097e-05
6.06333e-05
8.74782e-05
0.000115108
0.000139243
0.000154205
0.000162246
0.000166049
0.00016663
0.000165759
0.000164522
0.000163044
0.000162058
0.000162835
0.00016453
0.000165865
0.00016638
0.000166329
0.000166111
0.000166329
0.000167077
0.000168501
0.000170955
0.000174253
0.000179342
0.000187239
0.000164228
3.55084e-05
4.62052e-05
6.45182e-05
8.97638e-05
0.000140968
0.000153656
0.000159698
0.000162446
0.000162831
0.000161929
0.00016039
0.000159231
0.000159176
0.0001611
0.000164281
0.00016673
0.000167591
0.000167813
0.000167636
0.000167832
0.00016902
0.000171031
0.00017337
0.000177495
0.000183418
0.000195085
0.000168598
5.96622e-05
8.61864e-05
0.000109132
0.000151432
0.000155234
0.000157167
0.000157444
0.000156564
0.000154947
0.000154509
0.000156199
0.000159685
0.000164121
0.00016761
0.000168974
0.000169701
0.000169873
0.000170043
0.000171294
0.000173192
0.000176448
0.000181168
0.000188712
0.000201678
0.000178591
0.000114808
0.000148816
0.000149571
0.000150201
0.000149578
0.00014831
0.0001488
0.000152934
0.000158608
0.000164221
0.00016863
0.000170648
0.000171982
0.000172634
0.000173002
0.000174011
0.000175811
0.000178531
0.000185461
0.000194615
0.000205597
0.000184676
0.00011494
0.00013944
0.000140973
0.000141346
0.000141368
0.000143013
0.000149315
0.000157411
0.000164691
0.00017006
0.000172886
0.00017474
0.000175726
0.000176209
0.000177008
0.000178491
0.000181826
0.000187459
0.000197732
0.000208707
0.000189185
9.89987e-05
0.00012569
0.000129753
0.000132402
0.000133384
0.000138567
0.000146823
0.000156218
0.000164748
0.000171228
0.000175278
0.000177989
0.000179342
0.000179845
0.000180258
0.00018111
0.000183527
0.000188939
0.000197653
0.000210861
0.000192368
0.000111928
0.000118061
0.000124171
0.000130213
0.000136213
0.000144127
0.000154259
0.000163771
0.000171903
0.000177826
0.000181736
0.000183585
0.000183673
0.00018293
0.000182364
0.000183205
0.000187731
0.000196129
0.000210211
0.000191405
0.000103114
0.000108011
0.00011365
0.000122093
0.000130978
0.000140532
0.000151365
0.000162389
0.000172869
0.000180944
0.000186061
0.000188068
0.000187457
0.000153356
0.000148805
0.000148123
0.000151745
0.000162776
0.000170642
8.48751e-05
0.000101828
0.00010558
0.000115312
0.000125319
0.000135358
0.000147216
0.000160428
0.000173046
0.000157587
0.000161849
0.000161534
0.000157676
0.00015265
0.000137094
8.70745e-05
9.03106e-05
9.50614e-05
0.000102362
0.00011034
0.000120595
0.000130146
0.000148096
0.000166574
9.72774e-05
0.000105222
0.000119646
0.000211496
0.000220386
0.000215974
0.000247568
0.000259209
0.000246133
0.000256224
0.000276016
0.000218862
0.000251915
0.000258193
0.000266223
0.000276028
0.00028771
0.000301148
0.000282745
0.000288588
0.000298434
0.000309582
0.00030739
0.000331609
0.00032711
0.000291912
0.000228558
0.000259827
0.000264479
0.000269976
0.000277852
0.000286996
0.000296221
0.000304393
0.000311321
0.00031594
0.000318299
0.00031836
0.000316348
0.000312896
0.000307546
0.000278816
0.000284301
0.000265707
0.000266174
0.000268624
0.000271994
0.000278288
0.000285275
0.000291478
0.00029689
0.000301627
0.000304949
0.000306338
0.000306091
0.000303979
0.000301608
0.000298798
0.00029834
0.000299008
0.000286991
8.17463e-05
0.000101205
0.000127128
0.000159748
0.000211755
0.000269121
0.000268888
0.000271068
0.000272289
0.000274136
0.000278517
0.000283356
0.000287231
0.000290561
0.000293503
0.000295474
0.000296321
0.000296289
0.00029429
0.00029242
0.000291374
0.000292628
0.00029482
0.000296977
0.000276636
0.00027912
0.000280921
0.00028346
6.94829e-05
8.69994e-05
0.000112478
0.000174108
0.000213278
0.000241232
0.000258188
0.000268351
0.000272976
0.000274725
0.000275074
0.000275913
0.000278502
0.000281437
0.000283684
0.000285511
0.0002868
0.000287401
0.000287819
0.000288095
0.000286763
0.000285492
0.00028534
0.000286682
0.000288488
0.000290873
0.000294032
0.000296432
0.000297214
0.000298341
0.000301159
0.000281212
5.26203e-05
7.16562e-05
9.2683e-05
0.000144306
0.000187451
0.000225946
0.000252083
0.000265524
0.000273141
0.000276368
0.000277322
0.000276968
0.000276943
0.000278281
0.00027975
0.00028074
0.000281483
0.000281607
0.000281406
0.000281359
0.000281444
0.000280742
0.000280081
0.00028044
0.000281523
0.000282957
0.000284717
0.000287135
0.000289241
0.000290656
0.000292674
0.000296533
0.000303958
0.000289615
7.19026e-05
9.55018e-05
0.000153773
0.000197303
0.000235809
0.000261098
0.000271753
0.000277376
0.000279788
0.000279635
0.000278398
0.000277609
0.000277922
0.00027826
0.000278309
0.000278282
0.000277762
0.000277121
0.000276677
0.000276427
0.000276025
0.000275753
0.000276217
0.000277169
0.00027848
0.000279975
0.000281971
0.000283914
0.000285712
0.000288348
0.00029315
0.000301342
0.000314019
0.000303555
9.46566e-05
0.000130227
0.000203768
0.000243048
0.000266007
0.000275426
0.000280489
0.000282992
0.000281464
0.000279657
0.000277994
0.000277337
0.000276947
0.00027632
0.000275669
0.000274763
0.000273807
0.000273108
0.000272724
0.000272424
0.000272363
0.00027274
0.000273522
0.000274782
0.000276207
0.000277971
0.000279749
0.000281842
0.000285153
0.000290963
0.000300091
0.000313571
0.000331009
0.000327561
0.000130727
0.000206437
0.000246743
0.00026938
0.000279547
0.000283591
0.000284785
0.000282447
0.000280293
0.000277934
0.000276552
0.000275647
0.000274562
0.000273527
0.000272376
0.000271166
0.00027028
0.000269815
0.000269569
0.000269621
0.000269966
0.000270573
0.000271711
0.000273101
0.000274805
0.000276717
0.000279176
0.000283203
0.000289959
0.000300158
0.000314567
0.000334011
0.000358732
0.000365709
0.000127619
0.000175213
0.000254572
0.000273693
0.000282204
0.000285186
0.000285202
0.000282901
0.000280523
0.000277782
0.000275777
0.000274465
0.00027307
0.000271834
0.000270504
0.000269113
0.000268105
0.00026755
0.000267353
0.000267429
0.00026776
0.000268315
0.00026943
0.000270936
0.000272775
0.000275244
0.000277922
0.000282518
0.000290488
0.000301473
0.000316337
0.000335394
0.000359142
0.000356493
0.000169189
0.00022081
0.000278198
0.00028455
0.000286564
0.000285887
0.000283677
0.000281057
0.000278008
0.00027538
0.00027363
0.000271963
0.000270501
0.000269017
0.000267595
0.000266504
0.000265813
0.000265585
0.000265664
0.000266031
0.000266699
0.000267865
0.000269509
0.000271582
0.000274323
0.000278302
0.000283456
0.000292529
0.000303876
0.000318873
0.000338143
0.000363132
0.000361108
0.000279352
0.000285377
0.000286796
0.000285784
0.000283611
0.000280826
0.000277826
0.000275157
0.00027306
0.000271093
0.000269429
0.000267947
0.000266494
0.000265377
0.00026479
0.000264643
0.000264781
0.000265292
0.000266377
0.000268006
0.000270222
0.000272754
0.000275823
0.000280709
0.000286648
0.00029566
0.000307395
0.000322611
0.000342281
0.000367838
0.000366097
0.000238615
0.000283826
0.000285366
0.000284095
0.000281961
0.000279532
0.000277089
0.000274674
0.000272404
0.000270343
0.000268609
0.000267102
0.000265742
0.000264789
0.000264513
0.000264602
0.000264933
0.000265686
0.000267333
0.000269744
0.000272796
0.000275854
0.000279384
0.000284428
0.000291158
0.000300006
0.000312005
0.000327712
0.000348436
0.000374353
0.000371231
0.000203181
0.000273426
0.000282825
0.000284409
0.000282784
0.000280436
0.000278296
0.000276393
0.00027413
0.000271725
0.00026986
0.000268164
0.000266623
0.000265491
0.00026471
0.000264453
0.000265084
0.000265498
0.000266729
0.000268545
0.000272365
0.000276665
0.000280515
0.000284874
0.00029054
0.000297438
0.00030622
0.00031822
0.000334608
0.000356048
0.00038361
0.000385938
5.5834e-05
7.80806e-05
0.00012335
0.00018046
0.000260475
0.000276947
0.000284045
0.000284968
0.000283033
0.000280364
0.000278144
0.000276133
0.000273802
0.000271349
0.000269612
0.000268395
0.000266867
0.000265631
0.000264978
0.000264802
0.000265125
0.000266411
0.000268593
0.000271261
0.000276956
0.00028178
0.000287042
0.000292713
0.000299127
0.000305993
0.000314486
0.000326409
0.00034318
0.000364552
0.000358933
4.89388e-05
6.12906e-05
8.80526e-05
0.00013435
0.000229577
0.000262654
0.000279117
0.000284837
0.000285146
0.000283297
0.000280661
0.000278119
0.000275998
0.000273353
0.000271091
0.000269131
0.000268355
0.000266684
0.000265951
0.000265631
0.000265673
0.000266224
0.000267467
0.000269719
0.000274053
0.000281019
0.000288338
0.000295375
0.000302774
0.000310179
0.00031715
0.000325451
0.00033729
0.000354214
0.000341157
0.000372269
5.01807e-05
6.39268e-05
9.5297e-05
0.000143639
0.000230365
0.000262261
0.000279529
0.000285297
0.000284833
0.00028323
0.000280736
0.000277741
0.000275349
0.000272051
0.000270576
0.000269592
0.000269073
0.000268429
0.000267632
0.000266666
0.000266965
0.000267841
0.000269445
0.000272035
0.000274974
0.000281639
0.00029508
0.000305853
0.000315699
0.000324452
0.000331746
0.000339746
0.000351676
0.000369006
0.000354397
4.20812e-05
5.05777e-05
6.69542e-05
0.000102572
0.000184671
0.000231433
0.000261461
0.000278384
0.000283884
0.000283942
0.000284026
0.000281181
0.000277051
0.000274131
0.000270641
0.000269342
0.000269545
0.000269885
0.000269253
0.000268453
0.000268213
0.000268693
0.000269946
0.000272032
0.0002752
0.000279738
0.000289834
0.000306294
0.000319342
0.000332535
0.000343126
0.00035069
0.000356925
0.000370766
0.00035035
4.20775e-05
5.13095e-05
6.91379e-05
0.000107985
0.000190646
0.000233729
0.000262709
0.00027898
0.000283593
0.000282403
0.000281684
0.00027914
0.000275199
0.000272203
0.000269727
0.000268933
0.000269643
0.000270712
0.000270462
0.000270155
0.000270287
0.000271053
0.000272586
0.000275161
0.000279112
0.000285708
0.000297562
0.000315912
0.000336561
0.000355499
0.000367778
0.000375168
0.000348772
0.000361634
5.15498e-05
7.21226e-05
0.000116246
0.00019792
0.000241559
0.000266164
0.000278245
0.000280675
0.000279767
0.000278035
0.000275317
0.00027189
0.000269469
0.00026809
0.00026885
0.000270534
0.000271938
0.000272066
0.0002718
0.00027286
0.0002746
0.000276371
0.000278892
0.000283626
0.000291455
0.000305464
0.000328288
0.000316895
0.000354298
0.000374309
0.00037809
0.000384813
0.000112771
0.000164604
0.000207919
0.000268828
0.000276141
0.000276397
0.000274581
0.00027215
0.000269415
0.000266801
0.000265521
0.00026553
0.000268188
0.000271401
0.000273526
0.000274248
0.000274293
0.000275459
0.000278663
0.000281029
0.000283463
0.000289477
0.000300071
0.000314517
0.000340654
0.00034745
0.000212357
0.000236253
0.00027125
0.000268859
0.000266307
0.000263801
0.000261534
0.000260326
0.000260836
0.000262749
0.000267409
0.000272281
0.000275607
0.000277469
0.000278527
0.000280333
0.000283199
0.000286286
0.000290032
0.000297078
0.000308309
0.000324291
0.000349972
0.000360389
0.000235268
0.000256423
0.000254326
0.000253132
0.000252099
0.000252588
0.000255399
0.000259919
0.000266737
0.000273389
0.000278148
0.000281388
0.000283626
0.00028623
0.00028894
0.000291518
0.000295531
0.000301726
0.00031231
0.00032958
0.000354744
0.000359594
0.000218236
0.000239225
0.000237903
0.000238934
0.000240325
0.000243453
0.000249357
0.000257259
0.000266222
0.000274766
0.000281112
0.000285722
0.000289077
0.000292428
0.000295429
0.000297889
0.000301334
0.000307972
0.000317319
0.000333479
0.000358223
0.000351493
0.000197375
0.00021682
0.000221527
0.000226921
0.000233632
0.000242804
0.00025419
0.000265312
0.000275849
0.000284253
0.000290786
0.00029566
0.000299589
0.000303016
0.000305961
0.000309039
0.000314927
0.000324596
0.000339046
0.000321757
0.000345926
0.000169272
0.000192356
0.000201385
0.000211235
0.000222206
0.000235261
0.000249757
0.000263288
0.000276419
0.000287666
0.000297038
0.000304182
0.000308841
0.00031248
0.000315428
0.000317302
0.000321665
0.000331433
0.000305659
0.000320855
0.000142598
0.0001534
0.000180768
0.00019402
0.000209322
0.000225944
0.000243195
0.000260079
0.000276594
0.000291589
0.000304624
0.000314512
0.000321597
0.000287416
0.000285914
0.000284036
0.000282931
0.000288916
0.000304755
0.000125111
0.000137482
0.000147853
0.000179157
0.000195006
0.000212674
0.000233295
0.000254834
0.000275593
0.000261672
0.000274495
0.000285527
0.000289118
0.000299094
0.000124818
0.000136325
0.000150479
0.000164123
0.000178884
0.000199047
0.000223419
0.000240482
0.00026231
0.000298397
0.000315839
0.000331759
0.000355738
0.000388959
0.000472815
0.000459693
0.000451909
0.000315871
0.000362847
0.000373346
0.000384945
0.000401346
0.000417547
0.000433182
0.000443962
0.000452812
0.000456999
0.000454483
0.000448439
0.000441416
0.000415561
0.00033055
0.000369952
0.000371565
0.000378251
0.000387257
0.00039824
0.000409196
0.000419348
0.000427648
0.000434236
0.000436694
0.000434503
0.000429955
0.000425282
0.000421771
0.00039193
0.000386246