/*--------------------------------*- C++ -*----------------------------------*\
| =========                 |                                                 |
| \\      /  F ield         | OpenFOAM: The Open Source CFD Toolbox           |
|  \\    /   O peration     | Version:  2206                                  |
|   \\  /    A nd           | Website:  www.openfoam.com                      |
|    \\/     M anipulation  |                                                 |
\*---------------------------------------------------------------------------*/
FoamFile
{
    version     2.0;
    format      ascii;
    arch        "LSB;label=32;scalar=64";
    class       volScalarField;
    location    "0";
    object      T;
}
// * * * * * * * * * * * * * * * * * * * * * * * * * * * * * * * * * * * * * //

dimensions      [0 0 0 1 0 0 0];

internalField   nonuniform List<scalar> 
114354
(
6.21652e-05
3.70744e-05
3.52044e-05
3.7576e-05
3.75682e-05
2.97823e-05
5.83745e-05
6.08857e-05
6.2713e-05
6.43578e-05
6.5725e-05
3.54654e-05
3.4164e-05
3.31277e-05
3.06965e-05
2.82026e-05
2.90117e-05
3.30068e-05
3.63163e-05
4.94448e-05
5.28441e-05
5.58715e-05
5.84477e-05
6.07751e-05
6.21949e-05
6.3177e-05
6.38142e-05
6.43719e-05
6.37438e-05
6.26097e-05
6.28522e-05
6.39501e-05
6.55406e-05
6.73605e-05
6.79474e-05
3.71667e-05
4.85332e-05
5.17705e-05
5.45811e-05
5.70368e-05
5.92282e-05
6.08005e-05
6.17628e-05
6.22622e-05
6.24908e-05
6.20408e-05
6.13506e-05
6.12481e-05
6.21173e-05
6.34066e-05
6.47537e-05
6.56947e-05
6.59791e-05
3.05438e-05
1.41194e-05
1.55289e-05
1.74719e-05
1.93147e-05
2.09822e-05
2.01585e-05
4.75926e-05
4.95399e-05
5.20888e-05
5.40827e-05
5.59705e-05
5.77486e-05
5.97008e-05
6.07106e-05
6.10681e-05
6.107e-05
6.06268e-05
5.9963e-05
5.97574e-05
6.03829e-05
6.15249e-05
6.25977e-05
6.33064e-05
6.38568e-05
6.40446e-05
3.0714e-05
2.9965e-05
3.29909e-05
1.2779e-05
2.27096e-05
2.70963e-05
3.28249e-05
3.84743e-05
4.34625e-05
4.70556e-05
4.93445e-05
5.13378e-05
5.29206e-05
5.42839e-05
5.54985e-05
5.6832e-05
5.88081e-05
5.97852e-05
6.00127e-05
5.99005e-05
5.94353e-05
5.87692e-05
5.85054e-05
5.89503e-05
6.0015e-05
6.09591e-05
6.14745e-05
6.18706e-05
6.17299e-05
6.15135e-05
6.22139e-05
6.30477e-05
6.57615e-05
6.76079e-05
4.08761e-05
1.75657e-05
2.14084e-05
2.80975e-05
3.43818e-05
3.99333e-05
4.55626e-05
4.9511e-05
5.14441e-05
5.3166e-05
5.42501e-05
5.47537e-05
5.5326e-05
5.6508e-05
5.81516e-05
5.90118e-05
5.90987e-05
5.88725e-05
5.83966e-05
5.77735e-05
5.74904e-05
5.7742e-05
5.86968e-05
5.96479e-05
6.00723e-05
6.01191e-05
5.99408e-05
6.00541e-05
6.07795e-05
6.17883e-05
6.35797e-05
6.54253e-05
6.89847e-05
3.97669e-05
1.5238e-05
1.93617e-05
2.60693e-05
3.32734e-05
4.14683e-05
4.83837e-05
5.12831e-05
5.31978e-05
5.52743e-05
5.55241e-05
5.55035e-05
5.56417e-05
5.63616e-05
5.73848e-05
5.82595e-05
5.82887e-05
5.799e-05
5.74782e-05
5.69198e-05
5.6721e-05
5.68793e-05
5.76341e-05
5.84626e-05
5.8755e-05
5.86204e-05
5.85541e-05
5.88609e-05
5.95395e-05
6.04706e-05
6.18666e-05
6.35883e-05
6.67175e-05
7.10815e-05
4.28406e-05
5.84848e-06
1.75512e-05
2.42591e-05
3.12042e-05
3.93337e-05
4.71935e-05
5.16512e-05
5.45919e-05
5.7459e-05
5.65328e-05
5.59484e-05
5.59399e-05
5.63715e-05
5.68981e-05
5.76215e-05
5.76065e-05
5.73049e-05
5.67666e-05
5.62456e-05
5.61362e-05
5.62524e-05
5.67023e-05
5.73049e-05
5.74288e-05
5.73897e-05
5.75572e-05
5.79682e-05
5.85778e-05
5.93579e-05
6.0612e-05
6.23366e-05
6.52398e-05
6.95838e-05
7.70396e-05
4.86655e-05
2.37826e-06
5.39876e-06
2.18974e-05
2.91541e-05
3.73665e-05
4.45126e-05
5.01879e-05
5.33659e-05
5.63172e-05
5.6515e-05
5.57541e-05
5.58883e-05
5.65073e-05
5.68645e-05
5.71898e-05
5.71658e-05
5.68291e-05
5.62684e-05
5.57992e-05
5.572e-05
5.57927e-05
5.59123e-05
5.63295e-05
5.63979e-05
5.64938e-05
5.67999e-05
5.72089e-05
5.77406e-05
5.84991e-05
5.95724e-05
6.14174e-05
6.45339e-05
6.91901e-05
7.62331e-05
4.92291e-05
2.65619e-06
1.9195e-05
2.81186e-05
3.54823e-05
4.2825e-05
4.87095e-05
5.22497e-05
5.48592e-05
5.56377e-05
5.56035e-05
5.59778e-05
5.675e-05
5.69436e-05
5.68343e-05
5.67091e-05
5.63931e-05
5.59037e-05
5.55009e-05
5.54252e-05
5.54417e-05
5.53845e-05
5.56238e-05
5.57601e-05
5.59382e-05
5.62504e-05
5.66404e-05
5.72536e-05
5.81535e-05
5.89007e-05
6.06893e-05
6.4163e-05
6.89535e-05
7.60465e-05
8.41774e-05
8.35108e-05
1.44428e-06
7.21e-06
1.30924e-05
3.35496e-05
4.12221e-05
4.71451e-05
5.05654e-05
5.34711e-05
5.48832e-05
5.5553e-05
5.63174e-05
5.67518e-05
5.67897e-05
5.65769e-05
5.62846e-05
5.5991e-05
5.56159e-05
5.52799e-05
5.51798e-05
5.51367e-05
5.50998e-05
5.52022e-05
5.53591e-05
5.55548e-05
5.58678e-05
5.63152e-05
5.6876e-05
5.76939e-05
5.88677e-05
6.10703e-05
6.46338e-05
6.95129e-05
7.64296e-05
8.75096e-05
5.86193e-05
5.06749e-06
1.05846e-05
3.16069e-05
3.87255e-05
4.55278e-05
4.93069e-05
5.24391e-05
5.42737e-05
5.52345e-05
5.61933e-05
5.63876e-05
5.63417e-05
5.62365e-05
5.59834e-05
5.5707e-05
5.54269e-05
5.51503e-05
5.50183e-05
5.49727e-05
5.50028e-05
5.50609e-05
5.53267e-05
5.54234e-05
5.57753e-05
5.6294e-05
5.68963e-05
5.79201e-05
5.97694e-05
6.24414e-05
6.57876e-05
7.05671e-05
7.74709e-05
8.67803e-05
6.32097e-05
3.18356e-06
7.30674e-06
9.91586e-06
3.13027e-05
3.85499e-05
4.48724e-05
4.88314e-05
5.16727e-05
5.35448e-05
5.46742e-05
5.55047e-05
5.57261e-05
5.57651e-05
5.57443e-05
5.5568e-05
5.5388e-05
5.5283e-05
5.50597e-05
5.49353e-05
5.49246e-05
5.5008e-05
5.51185e-05
5.55447e-05
5.55257e-05
5.60815e-05
5.68018e-05
5.75544e-05
5.89576e-05
6.10749e-05
6.4041e-05
6.7658e-05
7.26358e-05
7.97171e-05
5.14011e-05
8.80145e-05
5.01215e-06
1.48572e-05
1.95405e-05
2.46472e-05
3.30415e-05
4.0532e-05
4.60567e-05
4.93454e-05
5.15626e-05
5.30955e-05
5.41075e-05
5.47325e-05
5.50621e-05
5.51882e-05
5.53582e-05
5.53305e-05
5.52686e-05
5.52059e-05
5.50101e-05
5.49114e-05
5.49149e-05
5.5057e-05
5.52736e-05
5.54469e-05
5.60697e-05
5.66522e-05
5.71217e-05
5.83147e-05
6.03381e-05
6.28035e-05
6.62011e-05
7.01456e-05
7.53669e-05
8.37985e-05
5.0815e-05
1.48691e-05
1.75013e-05
2.17485e-05
2.87055e-05
3.69904e-05
4.34674e-05
4.8107e-05
5.09704e-05
5.28737e-05
5.38472e-05
5.42989e-05
5.46997e-05
5.50551e-05
5.51356e-05
5.54369e-05
5.55089e-05
5.54577e-05
5.52722e-05
5.50461e-05
5.49699e-05
5.49647e-05
5.51298e-05
5.48438e-05
5.5795e-05
5.67036e-05
5.67859e-05
5.84214e-05
6.00434e-05
6.20846e-05
6.51075e-05
6.89255e-05
7.3148e-05
7.91565e-05
8.80737e-05
5.76811e-05
6.67531e-06
1.52191e-05
1.89716e-05
2.46155e-05
3.27996e-05
4.07148e-05
4.68795e-05
5.06617e-05
5.30191e-05
5.43697e-05
5.47191e-05
5.47828e-05
5.50733e-05
5.53308e-05
5.54311e-05
5.53952e-05
5.58138e-05
5.56992e-05
5.54491e-05
5.51507e-05
5.51056e-05
5.51712e-05
5.53408e-05
5.57535e-05
5.61007e-05
5.59202e-05
5.72107e-05
5.94103e-05
6.15235e-05
6.44305e-05
6.80585e-05
7.23476e-05
7.76805e-05
8.42915e-05
5.22362e-05
7.04108e-06
1.65953e-05
2.05863e-05
2.68771e-05
3.70723e-05
4.49853e-05
5.01386e-05
5.26555e-05
5.45356e-05
5.54333e-05
5.54346e-05
5.52e-05
5.52954e-05
5.54965e-05
5.54052e-05
5.59155e-05
5.63045e-05
5.60109e-05
5.58803e-05
5.54766e-05
5.53234e-05
5.54514e-05
5.56954e-05
5.61146e-05
5.68682e-05
5.78302e-05
6.10747e-05
6.12318e-05
6.30336e-05
6.70354e-05
7.24137e-05
7.79225e-05
8.35523e-05
5.01733e-05
1.43922e-05
1.77447e-05
2.322e-05
3.03664e-05
4.1214e-05
4.81404e-05
5.18154e-05
5.46307e-05
5.61616e-05
5.64628e-05
5.59503e-05
5.54871e-05
5.52502e-05
5.53355e-05
5.57639e-05
5.62937e-05
5.59576e-05
5.62408e-05
5.63441e-05
5.60656e-05
5.5761e-05
5.58283e-05
5.61645e-05
5.66965e-05
5.74806e-05
5.88169e-05
6.00785e-05
6.14872e-05
6.65653e-05
7.22607e-05
7.6754e-05
4.65277e-05
4.93511e-05
7.73804e-05
1.45874e-05
1.78041e-05
2.35956e-05
3.08234e-05
3.92589e-05
4.65967e-05
5.11138e-05
5.45997e-05
5.62943e-05
5.67077e-05
5.62752e-05
5.58304e-05
5.5386e-05
5.5209e-05
5.56624e-05
5.60964e-05
5.62416e-05
5.64479e-05
5.65318e-05
5.64039e-05
5.61994e-05
5.63182e-05
5.67359e-05
5.73845e-05
5.83525e-05
5.97418e-05
6.18768e-05
6.56183e-05
3.00273e-05
3.35234e-05
4.1588e-05
6.85617e-05
8.22995e-06
1.76328e-05
2.2865e-05
3.02345e-05
3.85246e-05
4.60553e-05
5.10697e-05
5.39573e-05
5.51427e-05
5.56708e-05
5.55421e-05
5.51077e-05
5.46553e-05
5.45727e-05
5.51355e-05
5.61148e-05
5.66911e-05
5.69455e-05
5.70109e-05
5.67055e-05
5.65241e-05
5.68091e-05
5.74198e-05
5.82113e-05
5.93664e-05
6.10416e-05
6.31394e-05
3.18238e-05
2.07987e-05
1.08709e-05
1.26731e-05
2.89681e-05
3.69034e-05
4.62727e-05
5.03364e-05
5.26828e-05
5.36803e-05
5.41969e-05
5.41849e-05
5.35921e-05
5.31514e-05
5.35862e-05
5.46387e-05
5.63524e-05
5.72104e-05
5.7502e-05
5.76144e-05
5.73088e-05
5.72141e-05
5.73568e-05
5.80644e-05
5.91315e-05
6.04756e-05
6.25e-05
6.53631e-05
3.45608e-05
2.31965e-05
2.87682e-05
2.2493e-05
4.79299e-05
5.06297e-05
5.17787e-05
5.23809e-05
5.2369e-05
5.15866e-05
5.14238e-05
5.26934e-05
5.47603e-05
5.67485e-05
5.77762e-05
5.81431e-05
5.8345e-05
5.81065e-05
5.78982e-05
5.81186e-05
5.87411e-05
5.99741e-05
6.18251e-05
6.45606e-05
6.8225e-05
3.44092e-05
2.24244e-05
5.01132e-05
4.95089e-05
5.01438e-05
5.00505e-05
4.89875e-05
4.93599e-05
5.17907e-05
5.50487e-05
5.72249e-05
5.84191e-05
5.896e-05
5.93337e-05
5.91565e-05
5.88833e-05
5.90226e-05
5.98034e-05
6.18811e-05
6.45705e-05
6.63267e-05
7.18256e-05
3.80478e-05
2.17185e-05
4.64952e-05
4.76384e-05
4.79229e-05
4.68138e-05
4.69184e-05
5.06932e-05
5.50167e-05
5.77116e-05
5.9235e-05
6.00623e-05
6.05322e-05
6.03021e-05
5.99258e-05
5.98519e-05
6.03756e-05
6.16906e-05
6.37059e-05
6.68382e-05
7.42255e-05
4.31435e-05
2.02818e-05
4.32664e-05
4.49068e-05
4.63424e-05
4.77329e-05
4.83549e-05
5.0666e-05
5.49167e-05
5.80152e-05
6.01103e-05
6.1435e-05
6.19472e-05
6.15949e-05
6.09707e-05
6.04831e-05
6.05443e-05
6.15584e-05
6.4019e-05
6.89626e-05
7.52904e-05
4.62755e-05
4.05054e-05
4.20608e-05
4.18961e-05
4.42638e-05
4.77668e-05
5.11208e-05
5.47242e-05
5.80354e-05
6.09573e-05
6.29126e-05
6.36788e-05
6.32743e-05
6.21251e-05
6.08812e-05
6.06078e-05
6.16208e-05
6.43663e-05
6.97806e-05
4.3174e-05
6.73898e-05
3.86744e-05
4.13533e-05
4.13903e-05
4.38861e-05
4.73174e-05
5.05063e-05
5.41853e-05
5.81213e-05
6.23465e-05
6.51491e-05
6.61003e-05
6.54522e-05
6.36509e-05
6.06149e-05
3.08705e-05
3.07803e-05
3.31997e-05
3.51296e-05
4.33684e-05
2.39488e-05
4.00025e-05
4.05871e-05
4.25619e-05
4.60292e-05
4.94608e-05
5.37143e-05
5.74251e-05
3.59263e-05
3.49173e-05
3.33391e-05
3.47259e-05
3.58761e-05
3.15654e-05
2.90123e-05
2.86263e-05
4.09681e-05
2.44996e-05
2.07611e-05
2.17361e-05
2.46639e-05
2.62822e-05
2.89316e-05
3.26234e-05
4.84033e-05
3.31685e-05
3.52255e-05
0.000160271
0.000165735
0.000170263
0.00015375
0.000159123
0.000131034
0.000161149
0.000165648
0.000170625
0.000176327
0.000181954
0.000186503
0.000163124
0.000165858
0.000161139
0.000150117
0.000165484
0.000171519
0.000171042
0.000174244
0.000157563
0.000160571
0.000164822
0.000169081
0.000174141
0.000179306
0.000183653
0.000187099
0.000188625
0.000188874
0.000189359
0.000192092
0.000193694
0.000194439
0.000192543
0.000166923
0.000121371
0.000156588
0.000160576
0.000164203
0.000167729
0.000172451
0.000177016
0.00018022
0.000182317
0.000183376
0.000183517
0.000183815
0.000185118
0.000186379
0.000187644
0.000187772
0.000190029
0.000168586
4.8645e-05
5.68059e-05
6.80179e-05
8.19424e-05
9.66052e-05
0.000105869
0.000114743
0.000154512
0.000158126
0.000161481
0.000164357
0.000167178
0.00017134
0.000175122
0.000177304
0.000178431
0.000178879
0.00017863
0.000178635
0.000179445
0.000180508
0.000181935
0.000182401
0.000184145
0.000186335
0.000158117
0.000160968
0.000163201
0.000165877
0.000177396
3.95392e-05
5.61563e-05
6.95039e-05
8.8326e-05
0.000108281
0.000126661
0.000140443
0.000150293
0.000156713
0.000160552
0.000162782
0.00016478
0.000167273
0.000170613
0.000173521
0.00017482
0.000175248
0.000175146
0.000174491
0.000174313
0.000174953
0.000176065
0.000177366
0.000178065
0.000179024
0.000180033
0.000181063
0.000183274
0.000185637
0.000187545
0.000190205
0.000166155
0.000179539
4.21641e-05
5.65635e-05
7.18177e-05
9.25221e-05
0.000116097
0.000133788
0.000147215
0.000155809
0.000160847
0.000163344
0.000164667
0.000165522
0.000167569
0.000169939
0.000172028
0.00017261
0.000172572
0.000172099
0.000171233
0.000170941
0.000171374
0.000172514
0.000173659
0.000174379
0.000174951
0.000175554
0.000176389
0.000178188
0.000180234
0.00018257
0.000185398
0.000190181
0.000198859
0.000179183
3.2272e-05
4.34175e-05
7.20401e-05
9.4149e-05
0.000119325
0.000139788
0.000154193
0.000160636
0.000164758
0.000166259
0.000166724
0.000166783
0.000167766
0.000169163
0.000170592
0.000170699
0.000170322
0.000169626
0.000168712
0.000168369
0.00016858
0.000169507
0.000170467
0.000170971
0.000171391
0.000171988
0.000172848
0.000174455
0.000176283
0.0001787
0.000181855
0.000187106
0.000195472
0.000208233
0.00019352
4.10564e-05
7.10954e-05
9.33192e-05
0.000118421
0.000139905
0.000155413
0.000163749
0.000168199
0.000169124
0.000168126
0.000167704
0.000167816
0.000168657
0.000169362
0.000169068
0.00016844
0.000167585
0.000166695
0.000166352
0.000166418
0.000166986
0.000167638
0.000167917
0.000168331
0.000169121
0.000170083
0.000171523
0.000173159
0.000175455
0.000178974
0.000184817
0.000193925
0.000207379
0.000227158
5.34808e-05
9.18251e-05
0.000116717
0.000138291
0.000153915
0.000163967
0.000169172
0.000169845
0.00016843
0.000168141
0.00016802
0.000168175
0.000168133
0.000167611
0.000166922
0.000166076
0.000165229
0.000164811
0.000164726
0.000164918
0.000165319
0.000165575
0.000166017
0.000166863
0.000167886
0.000169192
0.000170845
0.000173061
0.000176859
0.000183186
0.000192909
0.000206771
0.000226742
0.000217905
4.82748e-05
6.85239e-05
0.000113685
0.000136342
0.000151978
0.000162069
0.000167319
0.000168655
0.000167928
0.000167876
0.000168299
0.000167752
0.000167004
0.000166538
0.000165972
0.000165044
0.000164109
0.000163606
0.000163422
0.000163369
0.00016362
0.000163929
0.000164406
0.000165204
0.000166331
0.000167734
0.000169743
0.000171666
0.000175683
0.000182976
0.000193145
0.000207194
0.000226194
0.000213783
5.92346e-05
8.3204e-05
0.00013638
0.000150066
0.00016002
0.000165691
0.000167907
0.000168314
0.00016846
0.00016833
0.000167111
0.000166171
0.000166141
0.000164959
0.000164098
0.000163269
0.000162684
0.000162405
0.000162291
0.000162449
0.000162779
0.000163331
0.000164161
0.00016533
0.000166881
0.000168985
0.000171805
0.000176765
0.000184406
0.000194752
0.000208947
0.000228004
0.000218239
6.69241e-05
9.81391e-05
0.000148066
0.000157843
0.000163687
0.000166899
0.000167984
0.000168249
0.000167714
0.000166791
0.000165597
0.000164828
0.000164025
0.000163442
0.00016277
0.000162051
0.000161813
0.000161777
0.000161942
0.000162348
0.000163068
0.000164108
0.000165455
0.000167218
0.000169538
0.00017371
0.000179603
0.000187071
0.00019737
0.000211759
0.000231836
0.000218656
5.96789e-05
9.38637e-05
0.000145879
0.000156455
0.000161919
0.00016518
0.000166338
0.000166882
0.000166651
0.000165786
0.00016515
0.000164257
0.00016394
0.000162585
0.000161991
0.000161708
0.000161627
0.000161762
0.000162035
0.000162569
0.000163565
0.000165002
0.000166941
0.000169195
0.000172227
0.000176922
0.000183284
0.000190988
0.000201667
0.000217027
0.000239094
0.000225533
3.01983e-05
3.91404e-05
5.3327e-05
7.61267e-05
0.000130624
0.000146606
0.000156793
0.000161921
0.000164208
0.000164948
0.000165586
0.000165639
0.000165211
0.000164639
0.000163783
0.000163584
0.00016263
0.000162017
0.00016164
0.000161568
0.000161904
0.00016245
0.000163166
0.000164402
0.000166297
0.000169178
0.000172333
0.000176102
0.000181499
0.000188351
0.000196258
0.000207624
0.000223467
0.000244809
0.000232969
2.87206e-05
4.61355e-05
6.39893e-05
9.02906e-05
0.000119107
0.000139107
0.000151545
0.000160121
0.000164367
0.000165211
0.00016524
0.000165551
0.000165466
0.000165097
0.000164718
0.000163646
0.000163491
0.000162773
0.000162093
0.000161821
0.000161788
0.000162182
0.000163046
0.000164205
0.000165774
0.000168326
0.000171717
0.000176112
0.000181278
0.000187374
0.000194735
0.000203529
0.000215523
0.000232386
0.000214739
0.00025729
2.70206e-05
3.96842e-05
5.04401e-05
6.98848e-05
9.7124e-05
0.000125741
0.000145466
0.000156338
0.0001634
0.000166507
0.000166601
0.000166096
0.000166159
0.000165637
0.000165023
0.000164859
0.000164346
0.000164315
0.000163193
0.000162402
0.000162235
0.000162351
0.000162802
0.000163796
0.000165434
0.000167671
0.000171129
0.000176039
0.000182146
0.000188284
0.000195712
0.000204006
0.000213481
0.000225252
0.000242688
0.000230489
2.86377e-05
4.11834e-05
5.38194e-05
7.62172e-05
0.000104954
0.000132035
0.000150102
0.00016048
0.000166292
0.000168387
0.000167692
0.00016684
0.000166524
0.000165345
0.000164757
0.000164013
0.000163839
0.000164126
0.000163866
0.000163131
0.000162868
0.000163158
0.000163833
0.000164967
0.000166918
0.000170587
0.000174795
0.000180817
0.000189409
0.000197511
0.000207038
0.000216478
0.00022696
0.000237342
0.000217853
2.92346e-05
4.21902e-05
5.66119e-05
8.10036e-05
0.000110271
0.000134592
0.000151678
0.000162474
0.00016874
0.000169525
0.000168286
0.000167459
0.000166411
0.000164611
0.00016446
0.000164125
0.000164163
0.000164441
0.00016449
0.000164162
0.000163882
0.000164271
0.000165197
0.000166649
0.000168883
0.000172149
0.000176781
0.000186458
0.000198698
0.000210148
0.000222905
0.000233455
0.00024579
0.000216666
2.91233e-05
4.29519e-05
5.9201e-05
8.57274e-05
0.00011354
0.000136606
0.000152814
0.000163
0.00016853
0.000168879
0.000167802
0.000166849
0.000165468
0.000163888
0.000164106
0.000164565
0.000164925
0.000165357
0.000165267
0.000165187
0.000163325
0.00016531
0.000166881
0.000168703
0.00017145
0.000175592
0.000181719
0.000192576
0.000169095
0.000179807
0.000197589
0.000216653
0.000236009
2.90046e-05
4.33425e-05
6.02403e-05
8.70614e-05
0.000114715
0.0001389
0.000153914
0.000161995
0.000165868
0.000166487
0.000165663
0.00016447
0.000163031
0.000162069
0.000162886
0.000164603
0.000165958
0.000166497
0.000166462
0.000166252
0.000166475
0.000167237
0.000168647
0.000171082
0.000174396
0.000179466
0.000187365
0.000164337
3.52007e-05
4.58916e-05
6.41972e-05
8.94537e-05
0.00014067
0.000153416
0.000159509
0.000162334
0.000162749
0.000161887
0.000160388
0.000159263
0.000159244
0.000161197
0.000164399
0.000166877
0.000167738
0.000167967
0.000167807
0.000167988
0.00016918
0.000171197
0.000173539
0.000177656
0.000183552
0.000195212
0.000168697
5.94029e-05
8.59462e-05
0.000108941
0.000151285
0.000155115
0.000157103
0.000157428
0.000156586
0.000154994
0.000154586
0.000156303
0.000159803
0.000164268
0.000167771
0.000169145
0.000169884
0.000170056
0.000170239
0.000171503
0.000173388
0.000176638
0.000181356
0.000188861
0.000201824
0.000178679
0.000114728
0.000148792
0.000149588
0.000150278
0.000149683
0.000148428
0.000148922
0.000153083
0.000158779
0.000164422
0.000168852
0.000170883
0.000172208
0.000172863
0.000173235
0.000174253
0.000176039
0.000178752
0.000185689
0.000194817
0.000205764
0.00018476
0.000114996
0.000139563
0.000141128
0.000141522
0.000141551
0.00014321
0.00014953
0.000157654
0.000164954
0.000170346
0.000173173
0.000175017
0.000176022
0.000176513
0.000177299
0.000178779
0.00018213
0.000187762
0.000198032
0.000208951
0.000189346
9.91274e-05
0.000125925
0.000130005
0.000132675
0.000133662
0.00013886
0.000147126
0.000156556
0.000165097
0.000171596
0.000175652
0.000178381
0.00017974
0.000180221
0.00018061
0.000181476
0.000183906
0.000189337
0.000198054
0.000211242
0.000192681
0.000112256
0.000118408
0.000124548
0.00013061
0.000136618
0.000144544
0.000154706
0.000164222
0.000172382
0.000178309
0.000182226
0.000184069
0.000184165
0.000183406
0.000182873
0.000183707
0.000188271
0.000196691
0.000210775
0.000191865
0.000103518
0.000108457
0.000114123
0.000122591
0.000131495
0.000141085
0.000151948
0.000162978
0.000173475
0.000181566
0.000186696
0.000188707
0.000188098
0.00015386
0.000149358
0.000148687
0.000152375
0.000163455
0.000171318
8.52889e-05
0.000102375
0.000106167
0.00011594
0.000125986
0.000136062
0.000147968
0.000161234
0.000173898
0.000158316
0.000162605
0.000162276
0.000158446
0.000153386
0.000137824
8.76325e-05
9.09388e-05
9.57203e-05
0.000103062
0.000111066
0.000121396
0.000131003
0.000149026
0.000167532
9.80912e-05
0.000106108
0.000120632
0.000211492
0.000220476
0.000215786
0.000247562
0.000259321
0.000246319
0.000256478
0.000276301
0.000218531
0.000251756
0.000258162
0.0002663
0.000276203
0.000287967
0.000301463
0.000283085
0.000288953
0.000298867
0.000310034
0.00030788
0.000332248
0.000327812
0.000292687
0.000228218
0.000259674
0.000264449
0.000270041
0.000278017
0.000287245
0.000296525
0.000304768
0.000311753
0.000316442
0.000318831
0.000318954
0.000316977
0.000313589
0.000308295
0.000279608
0.000285116
0.000265426
0.000266035
0.000268592
0.000272053
0.000278432
0.00028551
0.000291786
0.000297272
0.000302057
0.000305424
0.000306863
0.00030667
0.000304582
0.000302253
0.000299473
0.000299046
0.000299726
0.000287689
8.11021e-05
0.000100545
0.000126458
0.000159101
0.000211262
0.000268704
0.00026862
0.000270916
0.000272253
0.000274178
0.00027864
0.000283565
0.000287497
0.000290909
0.000293908
0.000295924
0.000296813
0.000296812
0.000294862
0.000293007
0.000291996
0.000293261
0.000295432
0.000297566
0.000277137
0.000279563
0.000281374
0.00028396
6.88347e-05
8.63208e-05
0.000111759
0.000173316
0.000212547
0.000240595
0.000257678
0.000267952
0.000272705
0.000274575
0.000275037
0.000275936
0.000278609
0.000281636
0.000283937
0.00028583
0.000287161
0.000287818
0.000288265
0.000288578
0.000287281
0.000286019
0.000285887
0.000287229
0.000289029
0.000291384
0.000294498
0.000296859
0.000297665
0.000298796
0.000301668
0.000281761
5.20216e-05
7.09843e-05
9.19637e-05
0.000143477
0.000186631
0.000225204
0.000251454
0.000265009
0.000272735
0.000276081
0.00027715
0.000276898
0.000276962
0.000278366
0.000279925
0.000280978
0.000281779
0.000281949
0.000281789
0.000281763
0.000281881
0.000281214
0.000280564
0.000280921
0.000281997
0.000283418
0.000285158
0.000287543
0.000289638
0.000291046
0.000293065
0.00029696
0.000304402
0.00029012
7.1233e-05
9.4793e-05
0.000152929
0.000196475
0.000235061
0.000260459
0.000271244
0.000276981
0.000279512
0.000279464
0.000278309
0.000277616
0.000277992
0.000278397
0.000278512
0.00027854
0.000278066
0.00027746
0.000277057
0.000276817
0.00027644
0.000276194
0.000276635
0.000277571
0.000278869
0.000280358
0.000282326
0.000284251
0.000286018
0.000288665
0.000293479
0.000301695
0.000314405
0.000304054
9.39565e-05
0.000129458
0.000202934
0.000242316
0.000265389
0.000274926
0.00028008
0.000282692
0.000281264
0.000279553
0.00027798
0.000277389
0.000277062
0.000276485
0.000275876
0.000275028
0.000274102
0.000273459
0.000273087
0.000272784
0.000272748
0.000273117
0.00027388
0.000275127
0.000276529
0.000278263
0.000280021
0.000282088
0.000285402
0.000291209
0.000300343
0.000313846
0.000331342
0.000328021
0.000129991
0.000205629
0.000246018
0.00026876
0.000279041
0.000283169
0.000284476
0.000282237
0.000280166
0.000277893
0.000276589
0.000275731
0.000274702
0.000273708
0.000272615
0.000271427
0.000270564
0.000270138
0.000269896
0.000269967
0.000270298
0.000270882
0.000272009
0.000273377
0.000275048
0.000276934
0.000279369
0.000283377
0.000290115
0.000300317
0.000314756
0.000334247
0.000359044
0.000366078
0.000126917
0.000174484
0.000253873
0.000273089
0.000281707
0.000284763
0.000284881
0.000282685
0.000280392
0.000277713
0.00027577
0.000274529
0.000273186
0.000271974
0.000270699
0.000269355
0.000268364
0.000267839
0.000267648
0.000267733
0.000268054
0.000268604
0.000269682
0.000271166
0.000272993
0.000275412
0.000278066
0.00028265
0.000290586
0.000301573
0.000316447
0.000335534
0.000359365
0.00035684
0.000168506
0.000220133
0.000277604
0.000284061
0.000286149
0.000285558
0.000283446
0.000280891
0.000277922
0.000275359
0.000273673
0.000272057
0.000270636
0.00026918
0.000267797
0.000266734
0.000266063
0.000265845
0.000265918
0.000266271
0.000266942
0.000268071
0.000269697
0.000271762
0.000274457
0.000278394
0.00028353
0.000292583
0.000303919
0.000318911
0.00033821
0.000363273
0.000361354
0.000278771
0.000284893
0.000286395
0.000285465
0.000283384
0.000280659
0.000277736
0.000275122
0.00027309
0.000271168
0.000269543
0.000268096
0.000266682
0.000265573
0.000265014
0.000264881
0.000265009
0.000265511
0.000266575
0.000268184
0.000270392
0.000272898
0.000275911
0.000280759
0.000286673
0.00029567
0.000307384
0.000322609
0.000342288
0.000367909
0.00036629
0.000238074
0.000283332
0.000284948
0.00028376
0.000281726
0.000279358
0.000276974
0.000274618
0.000272427
0.000270408
0.000268707
0.000267254
0.000265917
0.000264984
0.000264718
0.000264809
0.000265134
0.000265888
0.00026752
0.000269912
0.000272935
0.00027597
0.000279456
0.000284451
0.000291164
0.000299981
0.000311959
0.000327693
0.000348437
0.000374397
0.000371389
0.000202546
0.00027285
0.000282321
0.000283998
0.000282454
0.000280179
0.000278115
0.000276274
0.000274066
0.000271747
0.000269916
0.000268256
0.000266758
0.00026563
0.000264878
0.000264633
0.000265267
0.000265671
0.0002669
0.000268713
0.000272511
0.000276791
0.000280619
0.000284944
0.000290554
0.000297423
0.000306175
0.000318166
0.000334554
0.000356012
0.000383626
0.000386026
5.52946e-05
7.74771e-05
0.000122631
0.000179717
0.000259774
0.000276357
0.000283547
0.000284551
0.000282692
0.000280112
0.000277966
0.000276025
0.000273749
0.00027136
0.000269664
0.000268484
0.000266989
0.000265762
0.00026515
0.000264976
0.000265309
0.000266587
0.00026875
0.000271397
0.000277078
0.000281887
0.000287119
0.000292777
0.000299158
0.000305969
0.000314445
0.00032636
0.00034312
0.00036452
0.000358992
4.84261e-05
6.0738e-05
8.7431e-05
0.000133644
0.000228815
0.000261994
0.000278536
0.000284333
0.000284741
0.00028295
0.000280407
0.000277957
0.000275898
0.0002733
0.000271108
0.000269177
0.000268441
0.000266819
0.000266098
0.000265797
0.000265833
0.000266398
0.000267642
0.000269871
0.000274192
0.000281145
0.000288449
0.000295448
0.000302842
0.000310204
0.00031716
0.000325431
0.000337264
0.000354199
0.000341185
0.000372305
4.96769e-05
6.33877e-05
9.46669e-05
0.00014295
0.00022966
0.000261638
0.000278966
0.00028481
0.000284434
0.000282913
0.000280504
0.000277583
0.000275238
0.000272005
0.000270593
0.000269636
0.000269175
0.000268563
0.000267786
0.00026683
0.000267129
0.000268016
0.000269621
0.000272189
0.000275135
0.000281796
0.000295217
0.000305961
0.000315792
0.000324513
0.000331792
0.000339775
0.000351707
0.000369025
0.000354484
4.16176e-05
5.00845e-05
6.64223e-05
0.000101954
0.000183951
0.000230771
0.00026087
0.000277854
0.000283432
0.00028357
0.00028371
0.00028096
0.000276916
0.000274048
0.000270619
0.000269374
0.000269611
0.000269986
0.000269379
0.000268596
0.000268374
0.000268867
0.000270116
0.000272208
0.000275368
0.000279885
0.000289981
0.000306454
0.00031949
0.000332676
0.000343244
0.000350789
0.000357013
0.000370851
0.000350468
4.16274e-05
5.08353e-05
6.86264e-05
0.000107386
0.000189965
0.000233107
0.000262134
0.000278467
0.000283161
0.000282081
0.000281423
0.000278946
0.000275097
0.000272164
0.000269711
0.000268977
0.00026973
0.000270833
0.000270622
0.000270329
0.000270473
0.000271237
0.000272775
0.000275363
0.000279293
0.000285881
0.000297721
0.000316094
0.000336757
0.00035572
0.000367978
0.000375345
0.000348947
0.000361816
5.10989e-05
7.16313e-05
0.000115672
0.000197243
0.000240963
0.000265628
0.000277781
0.000280309
0.000279495
0.000277832
0.000275186
0.000271825
0.000269467
0.000268129
0.000268947
0.000270657
0.000272087
0.000272242
0.000272017
0.000273076
0.000274801
0.00027659
0.000279109
0.000283834
0.000291651
0.000305642
0.000328482
0.000317109
0.000354547
0.000374582
0.000378368
0.000385044
0.000112251
0.000164069
0.000207404
0.000268375
0.000275767
0.000276102
0.000274377
0.000272001
0.000269339
0.000266785
0.000265559
0.000265611
0.000268323
0.00027157
0.000273736
0.000274469
0.000274547
0.000275704
0.000278904
0.000281287
0.000283702
0.000289702
0.000300277
0.000314704
0.000340823
0.000347619
0.000211956
0.000235921
0.00027097
0.000268657
0.000266196
0.000263747
0.000261544
0.000260383
0.000260938
0.000262888
0.000267598
0.000272514
0.000275869
0.000277753
0.000278817
0.000280609
0.000283487
0.000286603
0.000290334
0.00029735
0.000308562
0.000324475
0.000350097
0.00036045
0.000235121
0.000256357
0.00025434
0.000253193
0.000252198
0.000252736
0.000255583
0.000260138
0.000266994
0.000273684
0.000278465
0.000281733
0.000283975
0.000286597
0.000289323
0.00029188
0.000295892
0.000302049
0.000312603
0.000329796
0.000354875
0.000359633
0.000218248
0.000239309
0.00023805
0.000239111
0.000240534
0.000243706
0.000249646
0.000257589
0.000266584
0.000275147
0.000281513
0.000286143
0.000289515
0.000292873
0.000295869
0.000298315
0.000301746
0.000308372
0.000317683
0.000333792
0.000358441
0.000351592
0.00019756
0.000217093
0.000221839
0.000227281
0.00023402
0.00024321
0.000254624
0.000265798
0.000276363
0.000284767
0.000291318
0.000296197
0.000300145
0.00030357
0.000306507
0.000309554
0.000315421
0.000325079
0.000339469
0.000322058
0.000346121
0.000169616
0.000192783
0.000201858
0.000211757
0.000222739
0.000235819
0.000250352
0.000263911
0.00027705
0.000288324
0.000297734
0.000304854
0.000309527
0.000313165
0.000316083
0.000317989
0.000322306
0.000332047
0.000306215
0.000321322
0.000143049
0.000153883
0.000181385
0.000194687
0.000210023
0.000226688
0.000243971
0.000260865
0.000277399
0.000292414
0.000305467
0.000315363
0.000322462
0.00028819
0.000286672
0.00028481
0.000283699
0.000289691
0.000305495
0.000125648
0.000138074
0.000148519
0.000179987
0.000195905
0.000213625
0.000234291
0.00025585
0.000276654
0.000262613
0.000275453
0.000286488
0.000290072
0.000300073
0.000125516
0.000137109
0.000151365
0.000165082
0.000179908
0.000200132
0.000224609
0.000241675
0.000263528
0.000298398
0.000315974
0.000332026
0.000356091
0.000389407
0.000473505
0.000460444
0.000452775
0.000315674
0.000362848
0.00037348
0.00038519
0.000401693
0.000418009
0.00043371
0.000444591
0.00045346
0.000457716
0.000455245
0.000449297
0.000442317
0.000416487
0.000330189
0.000369753
0.00037152
0.000378358
0.00038747
0.000398572
0.000409628
0.00041986
0.000428246
0.000434878
0.000437404
0.000435274
0.000430772