/*--------------------------------*- C++ -*----------------------------------*\
| =========                 |                                                 |
| \\      /  F ield         | OpenFOAM: The Open Source CFD Toolbox           |
|  \\    /   O peration     | Version:  2206                                  |
|   \\  /    A nd           | Website:  www.openfoam.com                      |
|    \\/     M anipulation  |                                                 |
\*---------------------------------------------------------------------------*/
FoamFile
{
    version     2.0;
    format      ascii;
    arch        "LSB;label=32;scalar=64";
    class       volScalarField;
    location    "0";
    object      T;
}
// * * * * * * * * * * * * * * * * * * * * * * * * * * * * * * * * * * * * * //

dimensions      [0 0 0 1 0 0 0];

internalField   nonuniform List<scalar> 
114354
(
4.86e-05
2.87818e-05
2.7516e-05
3.00108e-05
3.05836e-05
2.31204e-05
4.65696e-05
4.8854e-05
5.089e-05
5.27482e-05
5.43543e-05
2.94651e-05
2.8799e-05
2.82905e-05
2.63832e-05
2.43767e-05
2.54094e-05
2.90586e-05
3.18295e-05
4.33346e-05
4.2779e-05
4.55048e-05
4.79158e-05
5.01675e-05
5.16664e-05
5.28074e-05
5.36824e-05
5.45085e-05
5.42627e-05
5.35247e-05
5.39154e-05
5.50189e-05
5.64305e-05
5.79703e-05
5.85258e-05
3.20696e-05
3.98141e-05
4.28588e-05
4.53546e-05
4.75761e-05
4.95884e-05
5.1058e-05
5.20363e-05
5.26529e-05
5.30195e-05
5.28108e-05
5.23553e-05
5.2372e-05
5.31837e-05
5.43248e-05
5.55227e-05
5.64341e-05
5.69719e-05
2.64847e-05
1.04034e-05
1.16069e-05
1.33526e-05
1.52712e-05
1.69868e-05
1.64923e-05
3.96766e-05
4.16701e-05
4.39364e-05
4.56653e-05
4.73291e-05
4.89047e-05
5.06231e-05
5.15553e-05
5.19425e-05
5.20263e-05
5.17264e-05
5.12444e-05
5.11374e-05
5.17191e-05
5.2747e-05
5.37246e-05
5.44573e-05
5.51567e-05
5.57837e-05
2.69847e-05
2.69226e-05
3.01772e-05
9.44995e-06
1.73792e-05
2.12801e-05
2.64438e-05
3.17701e-05
3.65447e-05
3.99907e-05
4.21486e-05
4.39667e-05
4.53177e-05
4.64461e-05
4.74773e-05
4.86193e-05
5.033e-05
5.1185e-05
5.13886e-05
5.13157e-05
5.09471e-05
5.04242e-05
5.02323e-05
5.06533e-05
5.16e-05
5.24829e-05
5.30432e-05
5.35688e-05
5.3774e-05
5.40052e-05
5.51136e-05
5.63165e-05
5.89487e-05
6.08413e-05
3.70149e-05
1.33226e-05
1.67982e-05
2.26943e-05
2.84528e-05
3.37835e-05
3.91228e-05
4.28561e-05
4.46579e-05
4.61707e-05
4.70576e-05
4.7409e-05
4.78294e-05
4.88084e-05
5.02028e-05
5.09182e-05
5.09757e-05
5.07767e-05
5.03706e-05
4.98447e-05
4.96345e-05
4.98864e-05
5.07299e-05
5.16305e-05
5.20828e-05
5.22803e-05
5.2362e-05
5.27202e-05
5.36367e-05
5.47875e-05
5.65245e-05
5.83295e-05
6.16415e-05
3.55918e-05
1.18708e-05
1.56183e-05
2.16188e-05
2.82255e-05
3.58299e-05
4.22928e-05
4.50701e-05
4.67959e-05
4.85748e-05
4.87014e-05
4.85668e-05
4.85777e-05
4.91373e-05
4.99632e-05
5.06661e-05
5.06554e-05
5.03874e-05
4.99334e-05
4.94386e-05
4.92797e-05
4.94376e-05
5.01191e-05
5.09088e-05
5.12425e-05
5.12485e-05
5.13533e-05
5.17968e-05
5.2587e-05
5.35566e-05
5.48949e-05
5.65471e-05
5.94219e-05
6.33828e-05
3.82665e-05
4.5825e-06
1.45134e-05
2.05974e-05
2.70463e-05
3.46434e-05
4.19026e-05
4.59866e-05
4.85772e-05
5.10412e-05
5.0097e-05
4.9433e-05
4.92971e-05
4.95791e-05
4.99532e-05
5.05269e-05
5.04786e-05
5.01741e-05
4.96893e-05
4.92155e-05
4.91319e-05
4.92503e-05
4.96622e-05
5.0246e-05
5.04167e-05
5.04744e-05
5.07473e-05
5.12374e-05
5.19043e-05
5.26935e-05
5.38886e-05
5.55039e-05
5.81295e-05
6.2006e-05
6.85029e-05
4.32251e-05
1.8836e-06
4.48048e-06
1.89474e-05
2.57146e-05
3.34224e-05
4.00664e-05
4.52143e-05
4.79882e-05
5.04915e-05
5.05248e-05
4.9703e-05
4.96942e-05
5.01271e-05
5.03482e-05
5.05606e-05
5.04854e-05
5.01667e-05
4.96512e-05
4.92162e-05
4.91511e-05
4.92112e-05
4.93462e-05
4.97505e-05
4.98752e-05
5.00317e-05
5.03849e-05
5.08385e-05
5.13918e-05
5.21504e-05
5.31658e-05
5.48341e-05
5.76217e-05
6.17411e-05
6.77803e-05
4.35434e-05
2.25636e-06
1.68749e-05
2.51747e-05
3.21287e-05
3.89952e-05
4.4329e-05
4.74262e-05
4.96345e-05
5.01769e-05
4.99851e-05
5.01938e-05
5.07658e-05
5.08419e-05
5.06783e-05
5.05122e-05
5.0211e-05
4.97327e-05
4.93397e-05
4.92655e-05
4.92745e-05
4.92508e-05
4.94987e-05
4.96601e-05
4.98812e-05
5.02175e-05
5.06602e-05
5.12567e-05
5.21e-05
5.28045e-05
5.43962e-05
5.74813e-05
6.16668e-05
6.76572e-05
7.40598e-05
7.2632e-05
1.23598e-06
6.37508e-06
1.17838e-05
3.0663e-05
3.78773e-05
4.32861e-05
4.62861e-05
4.87969e-05
4.99212e-05
5.03644e-05
5.09345e-05
5.12099e-05
5.11319e-05
5.0865e-05
5.05474e-05
5.02493e-05
4.98749e-05
4.95478e-05
4.94385e-05
4.94048e-05
4.93774e-05
4.94973e-05
4.96623e-05
4.9908e-05
5.02293e-05
5.06918e-05
5.12275e-05
5.19948e-05
5.30556e-05
5.49948e-05
5.81216e-05
6.23244e-05
6.80757e-05
7.69945e-05
5.08735e-05
4.53818e-06
9.58353e-06
2.90502e-05
3.58279e-05
4.21227e-05
4.55035e-05
4.82422e-05
4.97699e-05
5.04748e-05
5.1228e-05
5.12969e-05
5.11555e-05
5.09761e-05
5.06936e-05
5.04147e-05
5.01104e-05
4.98266e-05
4.96931e-05
4.96553e-05
4.96726e-05
4.97642e-05
5.00339e-05
5.01511e-05
5.05065e-05
5.10161e-05
5.15615e-05
5.24911e-05
5.41509e-05
5.64976e-05
5.93778e-05
6.34162e-05
6.90369e-05
7.60418e-05
5.44338e-05
2.96741e-06
6.73345e-06
9.08874e-06
2.89272e-05
3.58565e-05
4.18127e-05
4.54149e-05
4.7908e-05
4.94744e-05
5.03824e-05
5.10238e-05
5.11118e-05
5.10482e-05
5.09587e-05
5.07343e-05
5.05282e-05
5.03789e-05
5.0163e-05
5.00251e-05
5.00157e-05
5.00922e-05
5.02251e-05
5.06239e-05
5.06301e-05
5.115e-05
5.18167e-05
5.24943e-05
5.37477e-05
5.56298e-05
5.82027e-05
6.12666e-05
6.53751e-05
7.10104e-05
4.53938e-05
7.46226e-05
4.87179e-06
1.42671e-05
1.8463e-05
2.30757e-05
3.08999e-05
3.80301e-05
4.32467e-05
4.62402e-05
4.81753e-05
4.94499e-05
5.02675e-05
5.07161e-05
5.09159e-05
5.09557e-05
5.10212e-05
5.09203e-05
5.08141e-05
5.07177e-05
5.05318e-05
5.04126e-05
5.0413e-05
5.05338e-05
5.07454e-05
5.09141e-05
5.15002e-05
5.2042e-05
5.24552e-05
5.35181e-05
5.53109e-05
5.74624e-05
6.03808e-05
6.36618e-05
6.78558e-05
7.44136e-05
4.44736e-05
1.47415e-05
1.70601e-05
2.08628e-05
2.72611e-05
3.50139e-05
4.11281e-05
4.54728e-05
4.80888e-05
4.97555e-05
5.05355e-05
5.08251e-05
5.10749e-05
5.12992e-05
5.12951e-05
5.149e-05
5.14977e-05
5.13919e-05
5.11819e-05
5.09555e-05
5.08703e-05
5.08756e-05
5.10234e-05
5.07523e-05
5.16313e-05
5.24535e-05
5.25209e-05
5.39785e-05
5.54375e-05
5.72078e-05
5.9806e-05
6.30437e-05
6.64361e-05
7.112e-05
7.75955e-05
4.95434e-05
6.81984e-06
1.52762e-05
1.8698e-05
2.38783e-05
3.14837e-05
3.88707e-05
4.46653e-05
4.81928e-05
5.03351e-05
5.14867e-05
5.16957e-05
5.16282e-05
5.17964e-05
5.1954e-05
5.19515e-05
5.18428e-05
5.21593e-05
5.19896e-05
5.17172e-05
5.14409e-05
5.1391e-05
5.14311e-05
5.15879e-05
5.19819e-05
5.22852e-05
5.21062e-05
5.32406e-05
5.52129e-05
5.70866e-05
5.95938e-05
6.26723e-05
6.62378e-05
7.04504e-05
7.52773e-05
4.61133e-05
7.31627e-06
1.68565e-05
2.05095e-05
2.63326e-05
3.59083e-05
4.32777e-05
4.80788e-05
5.03915e-05
5.20819e-05
5.28142e-05
5.27016e-05
5.23611e-05
5.23623e-05
5.24539e-05
5.22707e-05
5.27055e-05
5.30066e-05
5.26571e-05
5.24992e-05
5.21152e-05
5.19771e-05
5.208e-05
5.22993e-05
5.26938e-05
5.33846e-05
5.42435e-05
5.71757e-05
5.72014e-05
5.86827e-05
6.21339e-05
6.67185e-05
7.12079e-05
7.52889e-05
4.47753e-05
1.5088e-05
1.82253e-05
2.33857e-05
3.00414e-05
4.0238e-05
4.66256e-05
4.99706e-05
5.25644e-05
5.39314e-05
5.41289e-05
5.35122e-05
5.29579e-05
5.26318e-05
5.26263e-05
5.29682e-05
5.34128e-05
5.3028e-05
5.32196e-05
5.32755e-05
5.29917e-05
5.2727e-05
5.2791e-05
5.3094e-05
5.35841e-05
5.43163e-05
5.55127e-05
5.65519e-05
5.76221e-05
6.20111e-05
6.68617e-05
7.0372e-05
4.25728e-05
4.43488e-05
6.78973e-05
1.546e-05
1.84888e-05
2.40065e-05
3.07453e-05
3.8593e-05
4.53997e-05
4.95644e-05
5.28101e-05
5.43472e-05
5.46381e-05
5.40944e-05
5.35786e-05
5.30673e-05
5.2817e-05
5.31984e-05
5.35478e-05
5.36285e-05
5.37516e-05
5.37963e-05
5.36461e-05
5.34629e-05
5.35843e-05
5.39729e-05
5.45646e-05
5.54574e-05
5.66988e-05
5.84906e-05
6.14223e-05
2.78909e-05
3.07035e-05
3.79262e-05
6.12276e-05
8.82255e-06
1.85085e-05
2.34917e-05
3.03982e-05
3.81276e-05
4.51274e-05
4.97875e-05
5.24641e-05
5.35125e-05
5.39321e-05
5.3698e-05
5.31943e-05
5.26696e-05
5.25104e-05
5.29952e-05
5.386e-05
5.43618e-05
5.45403e-05
5.45628e-05
5.42416e-05
5.40649e-05
5.43551e-05
5.49311e-05
5.56516e-05
5.67134e-05
5.82022e-05
5.99152e-05
2.98762e-05
1.87606e-05
1.15796e-05
1.32188e-05
2.93905e-05
3.67947e-05
4.56113e-05
4.93469e-05
5.15082e-05
5.23993e-05
5.28108e-05
5.26918e-05
5.20193e-05
5.14877e-05
5.18478e-05
5.28052e-05
5.43683e-05
5.51533e-05
5.5371e-05
5.54349e-05
5.5108e-05
5.49947e-05
5.51374e-05
5.58295e-05
5.67955e-05
5.80368e-05
5.98523e-05
6.22819e-05
3.24841e-05
2.37841e-05
2.8993e-05
2.23647e-05
4.73004e-05
4.98166e-05
5.08532e-05
5.13459e-05
5.12286e-05
5.03626e-05
5.00897e-05
5.12365e-05
5.31689e-05
5.5026e-05
5.59611e-05
5.62549e-05
5.64119e-05
5.61398e-05
5.59144e-05
5.6099e-05
5.66895e-05
5.78367e-05
5.95715e-05
6.20507e-05
6.52577e-05
3.26711e-05
2.22984e-05
4.97031e-05
4.89476e-05
4.94716e-05
4.92521e-05
4.81004e-05
4.83359e-05
5.06228e-05
5.37179e-05
5.57516e-05
5.68206e-05
5.72778e-05
5.75957e-05
5.73804e-05
5.70707e-05
5.71927e-05
5.78986e-05
5.98493e-05
6.23647e-05
6.38845e-05
6.88432e-05
3.63823e-05
2.17498e-05
4.63828e-05
4.7375e-05
4.74827e-05
4.62374e-05
4.61808e-05
4.9776e-05
5.39124e-05
5.64411e-05
5.78296e-05
5.85353e-05
5.89427e-05
5.86681e-05
5.82416e-05
5.81285e-05
5.85513e-05
5.97397e-05
6.15448e-05
6.43789e-05
7.10866e-05
4.11877e-05
2.05503e-05
4.36437e-05
4.50512e-05
4.62797e-05
4.75088e-05
4.78882e-05
5.00029e-05
5.40441e-05
5.69199e-05
5.88412e-05
6.00354e-05
6.04593e-05
6.00239e-05
5.93573e-05
5.8781e-05
5.87334e-05
5.95929e-05
6.17773e-05
6.62826e-05
7.18458e-05
4.39255e-05
4.13767e-05
4.26638e-05
4.23304e-05
4.44058e-05
4.75794e-05
5.06784e-05
5.40534e-05
5.71263e-05
5.98311e-05
6.15864e-05
6.21924e-05
6.16751e-05
6.04426e-05
5.91156e-05
5.87175e-05
5.9534e-05
6.19415e-05
6.68028e-05
4.12698e-05
6.34708e-05
3.99931e-05
4.24798e-05
4.22918e-05
4.43857e-05
4.74345e-05
5.03443e-05
5.37379e-05
5.73684e-05
6.1288e-05
6.37812e-05
6.4473e-05
6.36701e-05
6.17566e-05
5.86673e-05
2.99059e-05
2.97101e-05
3.18953e-05
3.35307e-05
4.10244e-05
2.48993e-05
4.14913e-05
4.1846e-05
4.3435e-05
4.64862e-05
4.95621e-05
5.34657e-05
5.68087e-05
3.5463e-05
3.42051e-05
3.25327e-05
3.37139e-05
3.46962e-05
3.04238e-05
2.7891e-05
2.74108e-05
3.90201e-05
2.54787e-05
2.13547e-05
2.2319e-05
2.51099e-05
2.65099e-05
2.89303e-05
3.23121e-05
4.75186e-05
3.37373e-05
3.55423e-05
0.000125596
0.000131448
0.00013679
0.000124143
0.000130964
0.000103357
0.000129395
0.000134288
0.00013959
0.00014564
0.000151879
0.00015741
0.000138487
0.00014205
0.000138673
0.000129939
0.000144521
0.000150484
0.000150032
0.000152354
0.000128238
0.000131697
0.000136097
0.000140441
0.000145477
0.000150707
0.000155312
0.000159084
0.000161117
0.000161952
0.000162959
0.000165811
0.000167409
0.00016821
0.000166895
0.000145234
9.94771e-05
0.00013036
0.000134094
0.00013763
0.000141068
0.000145479
0.000149824
0.000153051
0.000155299
0.00015663
0.000157173
0.000157789
0.00015922
0.000160549
0.00016187
0.000162384
0.000165071
0.000147207
3.61042e-05
4.2908e-05
5.25893e-05
6.5014e-05
7.86793e-05
8.75847e-05
9.56044e-05
0.000130722
0.000133957
0.000136892
0.00013951
0.00014212
0.00014585
0.000149283
0.000151379
0.000152585
0.000153211
0.000153246
0.000153481
0.000154398
0.000155556
0.000157023
0.000157816
0.000159996
0.000162908
0.000139157
0.000143712
0.000147724
0.000151797
0.000163183
2.92624e-05
4.29182e-05
5.45606e-05
7.11717e-05
8.95476e-05
0.000106796
0.000119781
0.000129005
0.000134725
0.000137961
0.000139745
0.000141386
0.000143569
0.000146477
0.000149011
0.000150188
0.000150664
0.000150705
0.000150278
0.000150276
0.000150986
0.000152173
0.000153532
0.00015448
0.000155884
0.000157548
0.00015943
0.000162598
0.000165788
0.000168424
0.000171328
0.000150656
0.000163413
3.17942e-05
4.42495e-05
5.78564e-05
7.65892e-05
9.83283e-05
0.000115094
0.000127745
0.000135688
0.000140087
0.000142057
0.00014294
0.000143466
0.00014514
0.000147108
0.00014884
0.000149312
0.000149309
0.000148945
0.000148279
0.000148122
0.000148621
0.000149785
0.000150987
0.000151943
0.000152888
0.000153992
0.000155425
0.000157762
0.000160245
0.00016289
0.00016578
0.0001704
0.000178673
0.000161795
2.4426e-05
3.42877e-05
5.9579e-05
7.9945e-05
0.000103283
0.000122389
0.000135783
0.000141633
0.000145114
0.000146146
0.000146197
0.000145947
0.000146596
0.000147638
0.00014875
0.000148741
0.000148385
0.000147778
0.000147035
0.000146788
0.000147071
0.000148028
0.000149043
0.000149774
0.000150473
0.000151436
0.000152694
0.000154595
0.000156657
0.000159162
0.000162217
0.000167075
0.000174713
0.000186291
0.000173667
3.32269e-05
6.01127e-05
8.08599e-05
0.000104415
0.000124505
0.000138668
0.000145993
0.000149668
0.000150104
0.000148831
0.000148103
0.000147899
0.000148413
0.000148869
0.000148465
0.000147848
0.000147065
0.000146304
0.00014603
0.000146157
0.000146762
0.000147486
0.000147981
0.000148611
0.000149629
0.000150831
0.000152447
0.000154186
0.000156431
0.000159687
0.000164945
0.000173011
0.000184773
0.000201859
4.55788e-05
8.0891e-05
0.000104441
0.000124654
0.000138869
0.000147664
0.00015193
0.000152066
0.000150392
0.000149749
0.00014933
0.000149211
0.000148963
0.000148345
0.000147668
0.000146872
0.000146092
0.000145722
0.000145708
0.000145951
0.000146435
0.000146852
0.000147454
0.000148452
0.000149617
0.000151007
0.000152639
0.00015471
0.000158121
0.000163699
0.000172124
0.000183962
0.000200774
0.000191934
4.18455e-05
6.06824e-05
0.000102968
0.000124218
0.000138424
0.000147257
0.000151557
0.000152263
0.000151163
0.000150739
0.000150795
0.000150028
0.000149138
0.000148564
0.000147987
0.000147117
0.000146222
0.000145756
0.000145611
0.000145632
0.000145963
0.000146377
0.000146962
0.000147868
0.000149036
0.000150445
0.000152334
0.000154042
0.00015754
0.000163882
0.000172535
0.000184282
0.000199793
0.000186983
5.30073e-05
7.57613e-05
0.000125438
0.000137828
0.00014658
0.000151279
0.000152813
0.000152722
0.000152462
0.000152041
0.000150661
0.000149596
0.000149423
0.000148281
0.000147438
0.000146627
0.00014604
0.000145786
0.000145738
0.000145958
0.000146365
0.000146973
0.000147847
0.000149001
0.000150477
0.000152383
0.000154829
0.000159106
0.000165637
0.000174266
0.000185884
0.000201069
0.000190061
6.13251e-05
9.06701e-05
0.000137003
0.000145666
0.000150582
0.000153068
0.000153624
0.000153503
0.000152712
0.000151595
0.000150286
0.000149436
0.000148611
0.000147999
0.000147307
0.000146585
0.000146364
0.000146382
0.000146588
0.000147019
0.000147748
0.00014877
0.000150027
0.000151627
0.000153668
0.000157283
0.000162285
0.000168517
0.000176902
0.000188399
0.000204
0.000189474
5.49834e-05
8.72313e-05
0.000135928
0.000145451
0.000150098
0.000152682
0.000153326
0.000153471
0.000152948
0.000151892
0.00015108
0.000150091
0.000149684
0.000148361
0.000147738
0.000147451
0.000147349
0.000147477
0.000147772
0.000148309
0.000149234
0.000150561
0.00015229
0.000154257
0.000156874
0.000160866
0.000166193
0.000172468
0.000180952
0.000192969
0.000209649
0.000194678
2.92427e-05
3.73172e-05
5.01368e-05
7.11722e-05
0.000122766
0.000137692
0.000146853
0.000151231
0.000152951
0.000153234
0.00015348
0.000153218
0.000152558
0.000151801
0.000150837
0.000150522
0.000149548
0.000148919
0.000148538
0.000148455
0.000148737
0.000149245
0.000149919
0.000151039
0.000152725
0.000155245
0.000157964
0.000161165
0.000165687
0.000171324
0.000177569
0.000186397
0.000198388
0.000213815
0.000199904
2.86228e-05
4.51383e-05
6.15871e-05
8.59483e-05
0.000112856
0.000131719
0.000143239
0.000150967
0.000154572
0.000154967
0.000154604
0.000154571
0.000154209
0.000153606
0.000153032
0.00015186
0.000151572
0.000150802
0.000150128
0.000149824
0.000149778
0.00015013
0.000150887
0.000151944
0.00015334
0.00015556
0.00015849
0.000162237
0.000166588
0.000171607
0.000177524
0.000184322
0.000193329
0.000205688
0.000186806
0.000221539
2.75633e-05
3.98459e-05
4.97647e-05
6.78534e-05
9.32783e-05
0.000120065
0.00013858
0.000148637
0.000155006
0.000157578
0.000157288
0.00015647
0.000156218
0.000155454
0.000154637
0.000154277
0.000153635
0.000153423
0.000152279
0.000151509
0.000151304
0.000151386
0.000151787
0.000152687
0.000154123
0.000156103
0.000159114
0.000163355
0.000168558
0.000173634
0.000179669
0.000186161
0.000193224
0.000201498
0.00021342
0.000199276
2.95908e-05
4.17675e-05
5.35624e-05
7.46114e-05
0.00010155
0.000126922
0.000143795
0.000153407
0.000158641
0.000160307
0.000159306
0.000158172
0.000157565
0.000156206
0.000155416
0.00015453
0.000154204
0.000154296
0.000153942
0.000153244
0.000152979
0.000153206
0.000153796
0.000154824
0.000156551
0.000159811
0.000163466
0.000168597
0.000175948
0.000182582
0.000190251
0.000197407
0.000204885
0.000210989
0.000190653
3.06354e-05
4.32584e-05
5.68896e-05
7.99701e-05
0.000107486
0.000130186
0.000146095
0.000156135
0.00016182
0.000162266
0.000160777
0.00015968
0.000158391
0.000156461
0.000156119
0.000155617
0.000155481
0.000155592
0.000155502
0.000155126
0.000154907
0.000155268
0.000156069
0.000157385
0.000159391
0.00016226
0.000166246
0.000174633
0.000185072
0.000194421
0.000204644
0.000212135
0.000220707
0.000191713
3.082e-05
4.44709e-05
6.0063e-05
8.53648e-05
0.000111428
0.000132897
0.000147981
0.000157449
0.000162467
0.000162492
0.000161169
0.000159978
0.000158403
0.000156679
0.000156707
0.000156968
0.00015714
0.000157421
0.000157194
0.000157021
0.000155222
0.000157161
0.000158603
0.000160242
0.000162708
0.000166365
0.000171686
0.000180968
0.000157855
0.000166197
0.000180825
0.00019619
0.000211419
3.08823e-05
4.52448e-05
6.16171e-05
8.72503e-05
0.000113245
0.000135872
0.000149798
0.000157253
0.000160709
0.000161027
0.000159967
0.000158566
0.000156937
0.00015581
0.000156402
0.000157872
0.000159019
0.000159395
0.000159217
0.000158906
0.00015906
0.000159798
0.00016116
0.000163375
0.000166334
0.000170827
0.000177732
0.000154934
3.72197e-05
4.76554e-05
6.51372e-05
8.90994e-05
0.000138415
0.000150108
0.000155644
0.000158116
0.000158285
0.000157183
0.000155475
0.000154141
0.000153899
0.00015559
0.000158509
0.000160732
0.000161405
0.00016149
0.000161216
0.000161322
0.000162426
0.000164307
0.00016647
0.000170194
0.000175448
0.000185906
0.00015943
6.07514e-05
8.62425e-05
0.000107891
0.000148979
0.000152254
0.000153909
0.000153992
0.000152905
0.000151069
0.000150407
0.000151828
0.000155018
0.000159146
0.000162351
0.000163517
0.000164076
0.000164144
0.000164229
0.000165363
0.000167079
0.000170066
0.000174354
0.000181154
0.000192875
0.000169841
0.000113658
0.000147187
0.000147573
0.000147944
0.000147031
0.000145452
0.000145632
0.000149395
0.000154706
0.000159979
0.000164089
0.000165861
0.000166984
0.000167503
0.000167752
0.000168616
0.000170183
0.00017259
0.000178983
0.000187274
0.000196996
0.000176116
0.000114718
0.000138858
0.000139991
0.000139931
0.000139521
0.000140775
0.000146635
0.000154286
0.000161128
0.000166135
0.000168666
0.000170272
0.000171067
0.000171402
0.00017198
0.000173206
0.000176149
0.000181184
0.000190422
0.000199956
0.000180311
9.99682e-05
0.000126705
0.00013013
0.000132201
0.000132663
0.000137252
0.000144948
0.00015383
0.000161845
0.000167865
0.000171528
0.000173913
0.000175005
0.000175258
0.000175416
0.000175962
0.000177949
0.000182678
0.000190277
0.000201702
0.000182878
0.000114365
0.000119748
0.000125266
0.000130604
0.00013585
0.000143119
0.000152613
0.000161476
0.000169005
0.0001744
0.000177858
0.000179346
0.000179135
0.000178092
0.000177213
0.000177579
0.000181379
0.000188522
0.000200385
0.000181149
0.000106738
0.000110992
0.000115948
0.000123608
0.000131662
0.00014043
0.000150465
0.000160666
0.000170331
0.000177662
0.000182149
0.000183664
0.000182721
0.000149378
0.000144628
0.000143561
0.000146593
0.000156391
0.000162521
8.87577e-05
0.000105881
0.00010901
0.000117991
0.000127119
0.000136238
0.000147126
0.000159281
0.00017074
0.000154968
0.000158445
0.000157606
0.000153459
0.000148388
0.000133077
9.11636e-05
9.40947e-05
9.82577e-05
0.000104765
0.000111916
0.0001213
0.000129748
0.000146464
0.000163589
0.000100183
0.000107364
0.000120866
0.000164009
0.000173159
0.000168397
0.000197844
0.000209752
0.00019996
0.00021186
0.000232259
0.000173872
0.000203891
0.00021119
0.000219748
0.00022992
0.000241873
0.000255302
0.000241008
0.000247983
0.000257685
0.000268962
0.000268547
0.000289933
0.000286155
0.000255807
0.000185633
0.000214821
0.000220075
0.000225877
0.000233705
0.00024268
0.000251738
0.000259839
0.000266745
0.00027168
0.000274639
0.000275551
0.000274496
0.000272043
0.000268038
0.000243731
0.000250138
0.000222622
0.000223633
0.000226451
0.000230021
0.000236034
0.000242655
0.000248639
0.000253961
0.000258669
0.000262171
0.00026403
0.000264466
0.000263172
0.000261704
0.000260053
0.000260906
0.000263416
0.000254677
6.16075e-05
7.79692e-05
0.000100733
0.000130441
0.000178064
0.00022862
0.000228766
0.00023074
0.000232055
0.000233991
0.000238081
0.000242561
0.000246238
0.000249494
0.00025245
0.000254581
0.000255794
0.000256272
0.000255013
0.000253931
0.000253784
0.000255951
0.000259311
0.000263244
0.00024719
0.000251704
0.000254864
0.000257803
5.20214e-05
6.69648e-05
8.89656e-05
0.000143791
0.000179798
0.000205995
0.000222199
0.000231295
0.000235184
0.000236512
0.000236757
0.000237561
0.000239927
0.000242553
0.000244622
0.000246433
0.000247812
0.000248631
0.00024933
0.000249977
0.000249222
0.000248588
0.000249132
0.000251183
0.000253894
0.000257354
0.000261586
0.000264985
0.000266652
0.000268328
0.000271531
0.000254539
3.87356e-05
5.45808e-05
7.3014e-05
0.000119032
0.000158638
0.000194319
0.000218823
0.000231517
0.00023822
0.000240729
0.000241207
0.000240615
0.000240479
0.000241597
0.000242823
0.000243684
0.000244425
0.000244707
0.000244736
0.000244937
0.000245338
0.000245061
0.000244884
0.000245766
0.000247425
0.000249547
0.000252064
0.000255205
0.000257978
0.000259949
0.000262268
0.000266169
0.000273215
0.000261043
5.61385e-05
7.72125e-05
0.000129889
0.000170676
0.000206461
0.000229877
0.000239719
0.000244451
0.000246126
0.000245549
0.000244054
0.000243082
0.000243175
0.000243317
0.000243276
0.000243259
0.000242933
0.000242508
0.000242288
0.000242299
0.000242216
0.000242339
0.000243209
0.000244618
0.000246412
0.000248445
0.000250917
0.000253266
0.000255336
0.000258051
0.000262623
0.000270118
0.000281599
0.000272495
7.82483e-05
0.000110866
0.00017933
0.00021609
0.000237138
0.000245465
0.000249511
0.000251224
0.000249364
0.000247302
0.000245435
0.000244579
0.000244
0.000243309
0.000242699
0.000241981
0.000241201
0.000240699
0.000240533
0.000240497
0.000240741
0.000241462
0.000242597
0.000244195
0.000245984
0.000248038
0.000250024
0.000252174
0.000255324
0.000260601
0.000268706
0.000280582
0.00029577
0.000292544
0.000113343
0.000184154
0.000222034
0.000242657
0.000251446
0.000254493
0.000254948
0.000252332
0.000249925
0.00024737
0.000245799
0.000244711
0.000243588
0.000242602
0.000241631
0.000240567
0.000239828
0.000239556
0.000239526
0.000239802
0.00024041
0.000241286
0.000242667
0.000244283
0.000246134
0.000248073
0.000250387
0.000254015
0.000259951
0.000268797
0.000281191
0.000297788
0.000318824
0.00032445
0.00011222
0.000157185
0.000231488
0.000248756
0.000255986
0.000258034
0.000257362
0.000254693
0.000252054
0.000249148
0.000247005
0.000245529
0.000244091
0.000242932
0.000241759
0.000240499
0.000239586
0.000239183
0.000239151
0.000239404
0.000239923
0.00024068
0.000241928
0.000243531
0.000245382
0.000247702
0.000250066
0.000254063
0.000260922
0.000270244
0.000282717
0.000298545
0.000318158
0.000314738
0.000153266
0.00020186
0.000254885
0.000260097
0.00026124
0.000259937
0.000257301
0.000254408
0.000251229
0.000248529
0.000246662
0.000244988
0.000243622
0.000242248
0.000240905
0.000239867
0.00023928
0.000239195
0.000239413
0.000239896
0.000240681
0.000241892
0.000243525
0.000245471
0.000247923
0.000251337
0.000255699
0.000263378
0.000272792
0.000285077
0.000300704
0.000320955
0.000317278
0.000257893
0.00026274
0.000263387
0.000261794
0.00025919
0.000256148
0.000253002
0.000250233
0.000248074
0.000246097
0.000244488
0.000243091
0.000241705
0.000240612
0.000240095
0.000240042
0.000240264
0.000240842
0.000241925
0.000243479
0.000245528
0.00024778
0.000250416
0.000254547
0.000259451
0.000266858
0.000276368
0.000288546
0.000304169
0.000324548
0.000320734
0.000221498
0.00026323
0.000264005
0.000262202
0.000259685
0.000256952
0.000254301
0.000251733
0.000249411
0.000247284
0.000245564
0.000244112
0.000242792
0.000241897
0.000241621
0.00024173
0.000242084
0.00024285
0.00024437
0.00024654
0.000249231
0.000251846
0.000254808
0.00025894
0.000264409
0.000271443
0.000280932
0.000293244
0.000309418
0.000329772
0.000324441
0.000190335
0.000256025
0.000264196
0.000265048
0.000262933
0.000260223
0.000257761
0.000255589
0.000253142
0.00025067
0.0002487
0.000246979
0.000245475
0.000244348
0.000243613
0.000243346
0.000243927
0.00024429
0.000245434
0.000247046
0.000250408
0.00025415
0.000257379
0.000260955
0.000265505
0.000270928
0.000277685
0.000286879
0.00029944
0.00031589
0.000337507
0.000337074
5.44752e-05
7.50423e-05
0.000117006
0.000170195
0.000245904
0.000260978
0.000267073
0.00026733
0.000264945
0.000261977
0.000259464
0.000257205
0.000254686
0.000252143
0.000250314
0.000248998
0.000247479
0.000246255
0.000245627
0.000245432
0.000245716
0.000246848
0.000248791
0.000251109
0.000256135
0.000260255
0.000264636
0.000269229
0.000274289
0.000279455
0.000285699
0.000294473
0.000306992
0.000322901
0.000314588
4.87029e-05
6.01745e-05
8.51288e-05
0.000128381
0.000218345
0.000249325
0.000264493
0.00026943
0.000269192
0.000266907
0.000263973
0.000261181
0.000258836
0.000256026
0.000253642
0.000251605
0.00025068
0.000249002
0.00024829
0.00024796
0.000247948
0.000248426
0.000249529
0.000251494
0.000255317
0.000261385
0.000267687
0.00027355
0.000279537
0.000285248
0.00029027
0.00029603
0.000304366
0.000316618
0.000301237
0.000326577
5.04288e-05
6.32564e-05
9.2803e-05
0.000138213
0.000220424
0.000250325
0.000266301
0.000271347
0.000270456
0.000268497
0.000265713
0.000262475
0.00025986
0.00025646
0.000254823
0.000253685
0.000253028
0.000252255
0.0002515
0.000250594
0.000250807
0.000251569
0.000252978
0.000255262
0.000257753
0.000263486
0.000275308
0.000284405
0.000292396
0.000299075
0.000304087
0.000309247
0.000317246
0.000329471
0.000312721
4.3286e-05
5.13782e-05
6.68358e-05
0.000100647
0.000178902
0.000222763
0.000250898
0.00026661
0.000271447
0.000271091
0.000270773
0.000267689
0.000263373
0.000260256
0.000256685
0.00025523
0.000255229
0.000255371
0.000254618
0.000253764
0.000253605
0.000254039
0.000255126
0.00025695
0.000259757
0.000263668
0.000272568
0.000287045
0.00029803
0.000308785
0.000316838
0.000321762
0.000324827
0.000334252
0.00031218
4.36136e-05
5.26056e-05
6.96629e-05
0.00010678
0.000185984
0.000226326
0.000253445
0.000268592
0.000272595
0.000271065
0.000270002
0.000267211
0.000263097
0.000259938
0.000257311
0.000256331
0.000256831
0.000257677
0.000257295
0.000256835
0.000256917
0.000257729
0.000259119
0.000261405
0.000264872
0.000270676
0.000281144
0.000297286
0.000315009
0.000330734
0.000339977
0.000344499
0.00031737
0.000326061
5.32417e-05
7.33024e-05
0.000115999
0.00019448
0.000235354
0.000258173
0.000269275
0.000271158
0.000269936
0.000267942
0.000264997
0.000261388
0.000258778
0.000257212
0.00025773
0.000259141
0.000260304
0.000260262
0.000259835
0.000260715
0.00026235
0.000264104
0.000266334
0.00027049
0.000277424
0.000289835
0.000310015
0.000297367
0.000330237
0.000346555
0.00034738
0.000351446
0.000113323
0.000163183
0.000203859
0.000262104
0.000268568
0.000268411
0.000266354
0.000263675
0.000260697
0.000257874
0.000256342
0.00025611
0.000258459
0.000261346
0.000263209
0.000263712
0.000263583
0.00026457
0.000267529
0.000269724
0.000271919
0.000277317
0.000286855
0.000299655
0.000322978
0.000327516
0.000209262
0.000231566
0.000265269
0.00026261
0.000259825
0.000257035
0.000254465
0.000252939
0.000253111
0.000254707
0.000258984
0.000263474
0.000266465
0.000268062
0.000268915
0.000270511
0.000273111
0.000275906
0.000279266
0.000285647
0.000295816
0.000310117
0.000333064
0.000341238
0.000231587
0.000252176
0.000249749
0.00024812
0.000246659
0.000246733
0.000249107
0.000253169
0.00025951
0.000265728
0.000270104
0.000273012
0.000274981
0.000277326
0.000279744
0.000281954
0.000285503
0.000290973
0.000300427
0.000315876
0.000338399
0.000341495
0.000216464
0.000237341
0.000235422
0.000235778
0.000236552
0.000239115
0.000244422
0.000251719
0.000260117
0.000268122
0.000274022
0.000278228
0.000281252
0.000284265
0.000286902
0.000288931
0.00029183
0.000297641
0.000305733
0.000320018
0.000342148
0.000334152
0.000197919
0.000216587
0.000220368
0.000224928
0.000230847
0.00023921
0.000249816
0.000260243
0.000270131
0.000277959
0.000283981
0.000288401
0.000291941
0.000294928
0.000297362
0.000299788
0.000304746
0.000313042
0.000325519
0.000307459
0.00032885
0.000172039
0.000194447
0.000202354
0.000211174
0.000221048
0.000233041
0.000246557
0.000259196
0.000271476
0.000281974
0.000290684
0.000297223
0.00030142
0.000304541
0.000306868
0.000308054
0.000311381
0.000319644
0.00029345
0.000306311
0.000147154
0.000157007
0.000183879
0.000195961
0.000209935
0.000225257
0.000241207
0.000256897
0.000272293
0.000286252
0.000298386
0.000307517
0.000313992
0.000280264
0.000278231
0.000275831
0.000273892
0.000278576
0.000292334
0.000130585
0.000142614
0.000152124
0.000182975
0.00019758
0.000213684
0.000232723
0.000252626
0.000271876
0.000257302
0.000269
0.000279133
0.000282015
0.000291447
0.000130757
0.000141933
0.000155362
0.000168069
0.000181348
0.000199983
0.000222757
0.000238019
0.000258058
0.000238483
0.000255241
0.000271908
0.000296347
0.000329381
0.000416525
0.000406168
0.000398774
0.000255494
0.000299704
0.000310939
0.000323094
0.000339214
0.00035511
0.000370423
0.000381605
0.000391064
0.000396387
0.000395546
0.000390918
0.000385416
0.000363827
0.000272497
0.00030876
0.000311557
0.000318583
0.000327501
0.000338113
0.000348682
0.000358582
0.000366943
0.00037383
0.000377197
0.000376422
0.00037335
0.000370071
0.000368028