/*--------------------------------*- C++ -*----------------------------------*\
| =========                 |                                                 |
| \\      /  F ield         | OpenFOAM: The Open Source CFD Toolbox           |
|  \\    /   O peration     | Version:  2206                                  |
|   \\  /    A nd           | Website:  www.openfoam.com                      |
|    \\/     M anipulation  |                                                 |
\*---------------------------------------------------------------------------*/
FoamFile
{
    version     2.0;
    format      ascii;
    arch        "LSB;label=32;scalar=64";
    class       volScalarField;
    location    "0";
    object      T;
}
// * * * * * * * * * * * * * * * * * * * * * * * * * * * * * * * * * * * * * //

dimensions      [0 0 0 1 0 0 0];

internalField   nonuniform List<scalar> 
114354
(
4.75469e-05
2.85957e-05
2.71989e-05
2.99908e-05
3.01086e-05
2.2376e-05
4.54221e-05
4.80643e-05
5.01313e-05
5.19809e-05
5.35748e-05
2.91207e-05
2.85392e-05
2.79057e-05
2.60106e-05
2.39565e-05
2.47887e-05
2.84882e-05
3.14539e-05
4.32293e-05
4.18996e-05
4.4734e-05
4.72095e-05
4.9446e-05
5.09089e-05
5.20143e-05
5.28133e-05
5.36337e-05
5.33576e-05
5.26031e-05
5.29654e-05
5.40768e-05
5.56009e-05
5.73214e-05
5.8111e-05
3.20625e-05
3.88495e-05
4.20032e-05
4.45378e-05
4.67508e-05
4.87381e-05
5.0174e-05
5.11317e-05
5.1705e-05
5.20617e-05
5.1847e-05
5.13883e-05
5.14153e-05
5.22698e-05
5.34517e-05
5.47368e-05
5.57553e-05
5.64882e-05
2.6447e-05
1.00076e-05
1.12721e-05
1.30366e-05
1.49587e-05
1.66774e-05
1.61825e-05
3.88264e-05
4.07742e-05
4.30527e-05
4.47817e-05
4.64259e-05
4.79608e-05
4.96504e-05
5.0543e-05
5.09055e-05
5.09795e-05
5.0691e-05
5.02224e-05
5.01282e-05
5.07359e-05
5.17837e-05
5.27935e-05
5.35889e-05
5.43598e-05
5.50097e-05
2.66383e-05
2.64811e-05
2.95019e-05
8.87298e-06
1.66563e-05
2.05349e-05
2.56412e-05
3.09371e-05
3.57103e-05
3.91239e-05
4.12321e-05
4.30136e-05
4.43694e-05
4.54899e-05
4.64981e-05
4.76005e-05
4.92766e-05
5.0088e-05
5.02645e-05
5.01984e-05
4.98396e-05
4.93186e-05
4.9147e-05
4.95785e-05
5.05225e-05
5.14356e-05
5.20127e-05
5.25874e-05
5.27754e-05
5.29879e-05
5.4038e-05
5.52029e-05
5.78638e-05
5.99742e-05
3.66144e-05
1.25002e-05
1.59747e-05
2.17612e-05
2.74439e-05
3.27663e-05
3.81193e-05
4.18358e-05
4.36335e-05
4.51352e-05
4.60146e-05
4.63468e-05
4.67549e-05
4.77006e-05
4.90481e-05
4.97292e-05
4.97668e-05
4.95603e-05
4.91706e-05
4.86491e-05
4.84553e-05
4.87109e-05
4.95371e-05
5.04476e-05
5.09154e-05
5.11418e-05
5.12003e-05
5.15607e-05
5.24642e-05
5.36319e-05
5.54217e-05
5.73488e-05
6.08675e-05
3.52971e-05
1.10211e-05
1.47112e-05
2.05854e-05
2.70988e-05
3.46451e-05
4.11106e-05
4.39264e-05
4.56667e-05
4.74201e-05
4.75613e-05
4.74137e-05
4.74119e-05
4.79347e-05
4.87207e-05
4.93833e-05
4.93766e-05
4.90732e-05
4.86429e-05
4.81446e-05
4.80042e-05
4.81636e-05
4.88317e-05
4.96209e-05
4.99613e-05
4.99888e-05
5.00912e-05
5.05342e-05
5.13408e-05
5.2327e-05
5.37185e-05
5.54585e-05
5.85021e-05
6.27819e-05
3.81362e-05
4.13929e-06
1.35546e-05
1.94947e-05
2.58507e-05
3.33964e-05
4.06648e-05
4.47515e-05
4.73461e-05
4.9759e-05
4.8829e-05
4.81685e-05
4.80156e-05
4.82616e-05
4.86201e-05
4.915e-05
4.90892e-05
4.87593e-05
4.83092e-05
4.78391e-05
4.77455e-05
4.78554e-05
4.82775e-05
4.8861e-05
4.90265e-05
4.90895e-05
4.93721e-05
4.98641e-05
5.05592e-05
5.13791e-05
5.26174e-05
5.43179e-05
5.70691e-05
6.12074e-05
6.82984e-05
4.36332e-05
1.68316e-06
4.10045e-06
1.77883e-05
2.44645e-05
3.21385e-05
3.88175e-05
4.39484e-05
4.67133e-05
4.91646e-05
4.91773e-05
4.83443e-05
4.83155e-05
4.87063e-05
4.88983e-05
4.90882e-05
4.89871e-05
4.86563e-05
4.81557e-05
4.77266e-05
4.76486e-05
4.77161e-05
4.78683e-05
4.82592e-05
4.8384e-05
4.85447e-05
4.89028e-05
4.93713e-05
4.99512e-05
5.0731e-05
5.17982e-05
5.35574e-05
5.6444e-05
6.07887e-05
6.73093e-05
4.35787e-05
2.02855e-06
1.56546e-05
2.37739e-05
3.07978e-05
3.77239e-05
4.30599e-05
4.61013e-05
4.8248e-05
4.87466e-05
4.85229e-05
4.87042e-05
4.92352e-05
4.92882e-05
4.91163e-05
4.89197e-05
4.85992e-05
4.81279e-05
4.77527e-05
4.76762e-05
4.76842e-05
4.76726e-05
4.79147e-05
4.80766e-05
4.82861e-05
4.8637e-05
4.90971e-05
4.97133e-05
5.0588e-05
5.13501e-05
5.30115e-05
5.62138e-05
6.06013e-05
6.70592e-05
7.48068e-05
7.56598e-05
1.09252e-06
5.78965e-06
1.09735e-05
2.92181e-05
3.65798e-05
4.20226e-05
4.49526e-05
4.73659e-05
4.84115e-05
4.88088e-05
4.93153e-05
4.95625e-05
4.9468e-05
4.91914e-05
4.88551e-05
4.85459e-05
4.81894e-05
4.78629e-05
4.77448e-05
4.77095e-05
4.76808e-05
4.7806e-05
4.79819e-05
4.82129e-05
4.85538e-05
4.90299e-05
4.95742e-05
5.03819e-05
5.15033e-05
5.35131e-05
5.67604e-05
6.11567e-05
6.73775e-05
7.74884e-05
5.22089e-05
4.04276e-06
8.84242e-06
2.76084e-05
3.45388e-05
4.08679e-05
4.41479e-05
4.67595e-05
4.81904e-05
4.88354e-05
4.95242e-05
4.95657e-05
4.93978e-05
4.91933e-05
4.88913e-05
4.86125e-05
4.83215e-05
4.80308e-05
4.78888e-05
4.78569e-05
4.7885e-05
4.7966e-05
4.82456e-05
4.8358e-05
4.87285e-05
4.9249e-05
4.98129e-05
5.07969e-05
5.25035e-05
5.49207e-05
5.7917e-05
6.22011e-05
6.8352e-05
7.67027e-05
5.59097e-05
2.6277e-06
6.14655e-06
8.46288e-06
2.76096e-05
3.46165e-05
4.05373e-05
4.40164e-05
4.63717e-05
4.78353e-05
4.86646e-05
4.92366e-05
4.92868e-05
4.91988e-05
4.90804e-05
4.88462e-05
4.86307e-05
4.84648e-05
4.82497e-05
4.81232e-05
4.81162e-05
4.81975e-05
4.83035e-05
4.87133e-05
4.87283e-05
4.92613e-05
4.99554e-05
5.06538e-05
5.19484e-05
5.38732e-05
5.65334e-05
5.97263e-05
6.41263e-05
7.03625e-05
4.52956e-05
7.79383e-05
4.30765e-06
1.31542e-05
1.73216e-05
2.19801e-05
2.97341e-05
3.68097e-05
4.19096e-05
4.47681e-05
4.65563e-05
4.77276e-05
4.84621e-05
4.88576e-05
4.90119e-05
4.90154e-05
4.90579e-05
4.89415e-05
4.88268e-05
4.87138e-05
4.85204e-05
4.84028e-05
4.84079e-05
4.85177e-05
4.87216e-05
4.8912e-05
4.95051e-05
5.00438e-05
5.049e-05
5.1572e-05
5.34018e-05
5.5623e-05
5.86425e-05
6.2071e-05
6.66441e-05
7.39684e-05
4.46413e-05
1.34489e-05
1.58278e-05
1.97156e-05
2.6148e-05
3.38525e-05
3.98598e-05
4.40525e-05
4.64976e-05
4.80297e-05
4.87146e-05
4.89296e-05
4.91316e-05
4.93018e-05
4.92615e-05
4.94392e-05
4.94058e-05
4.9292e-05
4.90731e-05
4.88478e-05
4.87621e-05
4.87648e-05
4.88986e-05
4.86479e-05
4.95075e-05
5.0336e-05
5.04373e-05
5.191e-05
5.3392e-05
5.51939e-05
5.78728e-05
6.12536e-05
6.48803e-05
7.00481e-05
7.76285e-05
5.04148e-05
6.11519e-06
1.39926e-05
1.7425e-05
2.2628e-05
3.02494e-05
3.76157e-05
4.32895e-05
4.66631e-05
4.86364e-05
4.96521e-05
4.97575e-05
4.96308e-05
4.97448e-05
4.98557e-05
4.98281e-05
4.96993e-05
4.9986e-05
4.98046e-05
4.95222e-05
4.92337e-05
4.91705e-05
4.92394e-05
4.93758e-05
4.97526e-05
5.00705e-05
4.9944e-05
5.11008e-05
5.30702e-05
5.49689e-05
5.751e-05
6.07074e-05
6.44544e-05
6.89938e-05
7.45051e-05
4.59191e-05
6.55163e-06
1.5453e-05
1.91268e-05
2.49595e-05
3.4497e-05
4.18601e-05
4.65747e-05
4.87452e-05
5.02776e-05
5.08791e-05
5.06743e-05
5.02917e-05
5.02355e-05
5.02648e-05
5.00683e-05
5.04451e-05
5.07351e-05
5.03726e-05
5.02037e-05
4.98264e-05
4.96575e-05
4.97722e-05
4.99893e-05
5.03742e-05
5.10562e-05
5.19419e-05
5.48396e-05
5.49794e-05
5.65424e-05
6.00415e-05
6.47583e-05
6.94704e-05
7.41005e-05
4.41963e-05
1.35858e-05
1.66986e-05
2.18027e-05
2.84865e-05
3.86555e-05
4.5075e-05
4.8364e-05
5.08095e-05
5.20265e-05
5.20938e-05
5.14073e-05
5.08145e-05
5.04497e-05
5.03923e-05
5.06847e-05
5.10722e-05
5.06961e-05
5.08328e-05
5.0874e-05
5.05834e-05
5.03209e-05
5.03848e-05
5.06843e-05
5.11784e-05
5.1902e-05
5.31324e-05
5.42562e-05
5.54433e-05
5.98843e-05
6.48163e-05
6.86256e-05
4.14049e-05
4.36421e-05
6.8004e-05
1.38996e-05
1.69133e-05
2.23531e-05
2.91491e-05
3.70577e-05
4.38637e-05
4.79306e-05
5.10085e-05
5.23966e-05
5.25608e-05
5.19437e-05
5.13826e-05
5.08147e-05
5.0532e-05
5.08513e-05
5.11548e-05
5.12059e-05
5.1305e-05
5.13452e-05
5.11773e-05
5.09834e-05
5.10862e-05
5.14644e-05
5.20816e-05
5.29798e-05
5.42708e-05
5.61886e-05
5.93438e-05
2.68723e-05
2.98101e-05
3.69869e-05
6.05024e-05
7.8927e-06
1.68925e-05
2.18265e-05
2.87819e-05
3.6588e-05
4.35727e-05
4.81133e-05
5.06237e-05
5.15207e-05
5.18355e-05
5.15201e-05
5.0972e-05
5.04113e-05
5.02116e-05
5.06193e-05
5.1422e-05
5.18734e-05
5.20327e-05
5.20225e-05
5.17064e-05
5.15183e-05
5.18147e-05
5.23799e-05
5.30787e-05
5.41516e-05
5.57238e-05
5.76524e-05
2.8855e-05
1.80416e-05
1.04954e-05
1.21852e-05
2.77577e-05
3.52423e-05
4.39895e-05
4.76519e-05
4.96651e-05
5.04134e-05
5.07075e-05
5.05232e-05
4.98018e-05
4.9248e-05
4.95374e-05
5.04304e-05
5.18993e-05
5.26279e-05
5.28137e-05
5.28387e-05
5.25316e-05
5.23876e-05
5.25254e-05
5.32181e-05
5.41643e-05
5.54365e-05
5.73393e-05
6.00278e-05
3.167e-05
2.23508e-05
2.76582e-05
2.15217e-05
4.56507e-05
4.79858e-05
4.88701e-05
4.92433e-05
4.90699e-05
4.81803e-05
4.78757e-05
4.89457e-05
5.07769e-05
5.25e-05
5.33766e-05
5.36396e-05
5.37592e-05
5.35123e-05
5.32822e-05
5.34544e-05
5.40317e-05
5.51633e-05
5.69109e-05
5.94569e-05
6.28844e-05
3.17255e-05
2.14789e-05
4.77887e-05
4.69572e-05
4.73805e-05
4.71116e-05
4.59865e-05
4.61786e-05
4.83425e-05
5.12843e-05
5.3199e-05
5.42266e-05
5.46115e-05
5.4898e-05
5.46861e-05
5.43976e-05
5.45075e-05
5.52042e-05
5.71243e-05
5.96069e-05
6.12374e-05
6.63166e-05
3.51377e-05
2.08554e-05
4.43648e-05
4.52521e-05
4.53324e-05
4.41369e-05
4.40854e-05
4.7503e-05
5.14679e-05
5.38755e-05
5.51975e-05
5.58707e-05
5.62462e-05
5.59659e-05
5.55768e-05
5.54568e-05
5.59004e-05
5.7088e-05
5.89065e-05
6.17761e-05
6.85697e-05
3.9822e-05
1.96202e-05
4.15756e-05
4.28946e-05
4.40635e-05
4.5248e-05
4.5659e-05
4.77037e-05
5.15884e-05
5.43513e-05
5.61998e-05
5.73596e-05
5.77578e-05
5.73483e-05
5.67244e-05
5.61847e-05
5.61601e-05
5.70402e-05
5.92202e-05
6.37066e-05
6.94578e-05
4.25882e-05
3.91965e-05
4.04173e-05
4.00896e-05
4.21592e-05
4.52951e-05
4.83124e-05
5.15899e-05
5.45839e-05
5.72126e-05
5.89333e-05
5.9533e-05
5.9047e-05
5.78856e-05
5.66187e-05
5.62488e-05
5.7071e-05
5.94741e-05
6.43248e-05
3.96963e-05
6.18554e-05
3.76601e-05
3.99962e-05
3.98142e-05
4.19458e-05
4.50221e-05
4.79125e-05
5.12477e-05
5.48068e-05
5.86423e-05
6.11287e-05
6.18805e-05
6.11193e-05
5.92892e-05
5.62674e-05
2.8549e-05
2.8427e-05
3.05567e-05
3.2184e-05
3.96312e-05
2.34142e-05
3.88911e-05
3.92111e-05
4.08366e-05
4.39443e-05
4.70371e-05
5.0891e-05
5.4236e-05
3.3809e-05
3.27554e-05
3.11934e-05
3.23684e-05
3.33471e-05
2.91776e-05
2.67037e-05
2.62308e-05
3.74389e-05
2.39013e-05
2.01251e-05
2.09249e-05
2.35876e-05
2.50359e-05
2.74537e-05
3.08037e-05
4.54866e-05
3.17274e-05
3.35533e-05
0.000123999
0.000130215
0.000135662
0.00012326
0.000130065
0.000101129
0.000127533
0.000132592
0.00013791
0.000143863
0.000149982
0.000155381
0.000136687
0.000140119
0.000136651
0.000127736
0.000141856
0.000148003
0.000148324
0.000151493
0.000125844
0.000129571
0.000134038
0.000138351
0.00014329
0.000148413
0.000152907
0.000156529
0.000158506
0.000159268
0.000160176
0.000163046
0.000164916
0.00016613
0.00016541
0.000144808
9.73272e-05
0.000127916
0.000131746
0.000135282
0.000138655
0.000142978
0.000147212
0.000150367
0.00015254
0.000153817
0.000154333
0.00015495
0.000156438
0.000157914
0.000159463
0.000160278
0.000163296
0.000146221
3.50356e-05
4.19497e-05
5.16622e-05
6.40176e-05
7.74875e-05
8.61876e-05
9.38652e-05
0.000128127
0.00013135
0.000134286
0.00013687
0.000139414
0.00014305
0.000146383
0.000148426
0.000149601
0.000150201
0.000150225
0.000150477
0.000151447
0.000152694
0.000154261
0.000155238
0.00015759
0.000160571
0.000137329
0.000141525
0.000145126
0.000149282
0.000161002
2.79125e-05
4.15219e-05
5.30697e-05
6.94839e-05
8.76532e-05
0.000104697
0.000117452
0.00012641
0.000131935
0.000135116
0.000136865
0.000138465
0.000140575
0.000143392
0.000145849
0.000146976
0.000147426
0.000147456
0.000147032
0.000147051
0.000147798
0.000149025
0.000150416
0.000151493
0.000152979
0.000154676
0.000156507
0.000159571
0.000162776
0.000165667
0.00016907
0.0001494
0.000163207
3.02397e-05
4.25313e-05
5.59016e-05
7.43462e-05
9.58244e-05
0.000112473
0.000124983
0.000132744
0.000137007
0.00013893
0.000139783
0.000140259
0.000141847
0.00014375
0.000145413
0.000145826
0.00014581
0.000145455
0.000144789
0.000144644
0.000145152
0.00014635
0.000147565
0.000148576
0.000149562
0.000150713
0.000152154
0.000154492
0.000157082
0.000159967
0.000163279
0.000168636
0.000178284
0.000163109
2.29551e-05
3.26384e-05
5.71931e-05
7.72001e-05
0.000100291
0.000119293
0.000132573
0.000138343
0.000141743
0.000142705
0.000142739
0.00014244
0.000143015
0.000143999
0.000145041
0.000144991
0.000144654
0.000144027
0.000143279
0.00014305
0.000143332
0.000144287
0.000145309
0.00014607
0.000146803
0.000147819
0.000149122
0.000151057
0.000153254
0.000156005
0.000159438
0.000164928
0.000173678
0.000187262
0.000177002
3.13664e-05
5.73575e-05
7.77238e-05
0.000101084
0.000121103
0.000135158
0.000142383
0.000145966
0.000146343
0.000145048
0.000144273
0.000144021
0.000144473
0.000144865
0.000144433
0.000143828
0.000143014
0.00014226
0.000142007
0.000142131
0.000142737
0.000143475
0.000143988
0.000144646
0.000145704
0.000146963
0.000148652
0.000150528
0.000153019
0.000156643
0.00016247
0.00017151
0.000184999
0.000205446
4.31533e-05
7.74468e-05
0.000100878
0.000121066
0.000135163
0.000143811
0.000147969
0.000148033
0.000146312
0.000145618
0.000145139
0.000144978
0.000144696
0.000144058
0.000143352
0.000142546
0.000141769
0.000141396
0.000141387
0.000141652
0.00014214
0.000142571
0.000143212
0.000144235
0.000145453
0.000146944
0.000148727
0.000151046
0.000154801
0.00016093
0.000170232
0.000183648
0.000203474
0.000198166
3.93617e-05
5.76664e-05
9.91945e-05
0.000120483
0.000134588
0.000143251
0.000147387
0.000147996
0.000146825
0.00014633
0.00014631
0.000145495
0.000144589
0.000143994
0.000143385
0.000142496
0.000141602
0.000141133
0.000141007
0.000141053
0.000141395
0.000141801
0.000142428
0.000143393
0.000144607
0.000146115
0.000148156
0.000150121
0.000153976
0.000160829
0.000170324
0.000183608
0.000201937
0.00019297
5.00439e-05
7.24934e-05
0.000121461
0.000133902
0.000142432
0.000146913
0.000148296
0.00014809
0.000147757
0.000147262
0.000145864
0.000144772
0.000144542
0.000143388
0.000142522
0.00014173
0.000141153
0.000140905
0.000140887
0.000141123
0.000141521
0.000142153
0.000143084
0.00014431
0.000145898
0.000147962
0.000150656
0.00015528
0.000162316
0.000171848
0.000185016
0.000202986
0.000195731
5.83365e-05
8.74911e-05
0.000133042
0.000141411
0.000146049
0.000148322
0.000148734
0.000148509
0.000147656
0.000146506
0.000145174
0.000144284
0.000143441
0.000142804
0.000142125
0.00014142
0.000141201
0.000141235
0.000141439
0.000141876
0.000142651
0.000143701
0.000145064
0.000146786
0.000148987
0.000152841
0.000158202
0.000165005
0.000174351
0.000187501
0.000206103
0.00019554
5.21907e-05
8.41161e-05
0.000131926
0.000141057
0.000145384
0.000147716
0.000148212
0.000148222
0.000147628
0.00014654
0.000145683
0.00014466
0.000144227
0.0001429
0.000142285
0.000141964
0.000141879
0.00014203
0.000142318
0.000142861
0.00014385
0.000145213
0.000147045
0.000149153
0.000151925
0.000156185
0.000161895
0.000168831
0.000178372
0.000192236
0.000212336
0.000201091
2.67858e-05
3.48466e-05
4.76812e-05
6.8457e-05
0.00011902
0.000133557
0.000142261
0.000146304
0.000147766
0.00014789
0.000148002
0.000147656
0.000146946
0.000146141
0.000145138
0.00014479
0.000143791
0.000143167
0.000142774
0.000142682
0.000142988
0.000143481
0.000144173
0.000145348
0.000147099
0.000149693
0.000152565
0.000155975
0.000160792
0.000166865
0.000173877
0.000183893
0.000198008
0.000217276
0.000207181
2.60069e-05
4.19833e-05
5.83486e-05
8.26385e-05
0.000109324
0.000127805
0.000138866
0.000146123
0.000149377
0.000149544
0.000149026
0.000148859
0.000148392
0.000147725
0.000147102
0.000145908
0.00014559
0.000144793
0.000144099
0.000143785
0.00014372
0.000144069
0.000144823
0.000145901
0.000147343
0.000149644
0.000152672
0.000156569
0.000161169
0.000166552
0.000173008
0.000180676
0.00019113
0.000205947
0.000189947
0.000228898
2.4874e-05
3.66115e-05
4.64584e-05
6.44099e-05
8.97312e-05
0.000116311
0.000134415
0.000144005
0.0001499
0.000152127
0.000151622
0.000150635
0.000150254
0.000149403
0.000148508
0.000148083
0.000147407
0.000147165
0.000146
0.000145202
0.000144992
0.000145051
0.000145434
0.000146335
0.000147797
0.000149836
0.000152933
0.000157266
0.000162625
0.000168032
0.000174526
0.000181706
0.000189827
0.000199885
0.000214947
0.000203711
2.66834e-05
3.83756e-05
5.00484e-05
7.08788e-05
9.76921e-05
0.000122875
0.000139365
0.00014849
0.000153298
0.000154635
0.000153424
0.000152134
0.000151401
0.000149964
0.000149092
0.000148151
0.00014776
0.000147789
0.000147397
0.000146662
0.000146401
0.000146615
0.000147175
0.000148204
0.000149969
0.000153256
0.00015702
0.000162276
0.000169832
0.000176863
0.00018513
0.000193211
0.000202089
0.000210628
0.000192441
2.75474e-05
3.96758e-05
5.31174e-05
7.59522e-05
0.000103371
0.000125933
0.000141466
0.000151015
0.000156261
0.000156416
0.000154716
0.000153463
0.000152069
0.000150066
0.000149611
0.000149045
0.000148831
0.000148883
0.00014874
0.000148314
0.000148062
0.000148402
0.000149204
0.00015051
0.000152551
0.000155503
0.000159654
0.000168188
0.000178847
0.000188741
0.000199797
0.000208684
0.000219079
0.000191896
2.7675e-05
4.07253e-05
5.6007e-05
8.10024e-05
0.000107105
0.000128473
0.000143196
0.000152201
0.000156771
0.000156507
0.000154988
0.000153631
0.000151955
0.000150161
0.000150073
0.000150225
0.000150283
0.000150481
0.000150223
0.000149975
0.000148246
0.00015009
0.000151502
0.000153124
0.000155641
0.000159416
0.000164963
0.00017461
0.000152472
0.000161481
0.000176924
0.00019359
0.000210505
2.77622e-05
4.13826e-05
5.73766e-05
8.27273e-05
0.000108774
0.000131264
0.000144853
0.000151891
0.000154952
0.000154989
0.000153727
0.000152166
0.000150434
0.000149216
0.00014969
0.000151002
0.000152
0.000152255
0.00015207
0.000151688
0.000151806
0.000152497
0.000153837
0.000156049
0.000159064
0.000163711
0.000170965
0.000149503
3.38392e-05
4.39968e-05
6.13443e-05
8.52164e-05
0.000133623
0.000145057
0.000150219
0.000152322
0.000152219
0.000150944
0.000149111
0.00014767
0.000147328
0.000148823
0.000151527
0.000153571
0.000154115
0.000154159
0.000153836
0.00015391
0.000154961
0.000156807
0.000158989
0.000162774
0.000168206
0.00017903
0.000154589
5.70221e-05
8.22356e-05
0.000103909
0.000143803
0.000146798
0.00014813
0.000147941
0.000146696
0.000144767
0.000144012
0.000145272
0.000148228
0.000152098
0.000155088
0.000156112
0.000156595
0.000156601
0.000156672
0.000157768
0.000159465
0.00016246
0.000166818
0.000173765
0.000185826
0.000164489
0.000109437
0.000141666
0.000141787
0.000141924
0.000140905
0.000139272
0.000139359
0.0001429
0.000147914
0.000152887
0.000156752
0.000158393
0.000159404
0.000159867
0.000160086
0.000160926
0.000162522
0.000164992
0.000171391
0.000179817
0.000190022
0.000170594
0.00011013
0.000133047
0.000133987
0.000133845
0.00013342
0.000134602
0.000140193
0.000147491
0.000154009
0.000158769
0.000161137
0.000162652
0.000163388
0.000163706
0.000164323
0.000165591
0.00016857
0.00017371
0.000183151
0.000193262
0.000175041
9.55803e-05
0.000120832
0.000124072
0.000126073
0.000126577
0.000131065
0.000138489
0.000147029
0.000154729
0.000160526
0.000164029
0.000166326
0.000167381
0.000167665
0.000167879
0.000168503
0.000170572
0.000175417
0.000183341
0.000195422
0.000178051
0.000108389
0.000113591
0.000118942
0.000124212
0.000129442
0.000136574
0.000145808
0.000154419
0.000161753
0.000167017
0.000170408
0.000171916
0.00017176
0.000170815
0.00017004
0.000170532
0.000174477
0.000181983
0.000194703
0.000176887
0.000100501
0.000104608
0.000109472
0.000117046
0.000125065
0.000133743
0.000143644
0.000153689
0.0001632
0.000170461
0.000174958
0.000176567
0.0001757
0.000143367
0.000138759
0.000137784
0.000140786
0.000150646
0.000157601
8.33134e-05
9.9195e-05
0.000102288
0.0001111
0.000120205
0.000129335
0.000140217
0.000152336
0.000163831
0.000148749
0.00015242
0.000151773
0.000147802
0.000142649
0.000127656
8.52494e-05
8.79681e-05
9.20515e-05
9.85706e-05
0.000105764
0.000115196
0.000123819
0.000140429
0.000157554
9.3976e-05
0.000101132
0.00011455
0.000163191
0.000172536
0.000166574
0.000196073
0.000207968
0.000198534
0.000210101
0.000229863
0.000170963
0.000201151
0.000208492
0.000216946
0.000226938
0.000238633
0.000251765
0.000237773
0.000244507
0.000253942
0.000264828
0.000264148
0.000285801
0.000282671
0.000253681
0.000182404
0.000211456
0.000216699
0.00022242
0.000230099
0.000238906
0.000247784
0.000255731
0.000262498
0.000267314
0.000270183
0.000271144
0.000270367
0.000268326
0.000264909
0.000241845
0.000248679
0.000218628
0.000219752
0.000222541
0.000226034
0.000231922
0.000238422
0.000244277
0.000249507
0.000254145
0.000257585
0.00025941
0.000259897
0.000258793
0.000257603
0.000256298
0.000257503
0.000260485
0.000252243
6.05495e-05
7.69261e-05
9.94961e-05
0.000128741
0.000175035
0.000224366
0.000224429
0.000226393
0.00022767
0.000229544
0.000233517
0.000237882
0.000241486
0.000244677
0.000247586
0.000249684
0.0002509
0.000251424
0.000250289
0.000249396
0.00024946
0.000251818
0.000255338
0.000259298
0.000243437
0.000247743
0.000251063
0.000254733
5.06575e-05
6.54946e-05
8.72968e-05
0.000141242
0.000176701
0.000202331
0.000217941
0.000226655
0.000230414
0.000231694
0.000231893
0.000232627
0.000234892
0.00023746
0.000239489
0.000241235
0.000242583
0.000243397
0.000244099
0.000244776
0.000244108
0.000243588
0.000244257
0.000246419
0.000249214
0.000252711
0.000256907
0.000260436
0.000262483
0.000264858
0.000269173
0.000253751
3.72314e-05
5.28613e-05
7.09945e-05
0.00011604
0.00015504
0.000190255
0.000214335
0.000226638
0.000233094
0.000235493
0.000235899
0.00023527
0.000235091
0.000236117
0.000237299
0.000238126
0.000238831
0.000239094
0.000239111
0.000239325
0.00023975
0.000239507
0.000239414
0.00024038
0.000242123
0.00024431
0.000246889
0.000250138
0.00025311
0.000255469
0.000258448
0.000263333
0.000271769
0.000261524
5.39519e-05
7.45385e-05
0.000125909
0.000166144
0.00020157
0.000224658
0.000234241
0.000238807
0.000240398
0.000239741
0.000238209
0.000237212
0.000237248
0.000237354
0.00023728
0.000237241
0.000236899
0.000236454
0.000236249
0.000236286
0.00023624
0.000236428
0.000237345
0.000238811
0.000240672
0.000242811
0.000245453
0.000248034
0.000250515
0.000253863
0.000259339
0.00026819
0.000281704
0.000275371
7.49882e-05
0.000106853
0.000174057
0.000210502
0.000231301
0.000239479
0.000243393
0.000244973
0.00024307
0.000240983
0.000239095
0.000238196
0.000237594
0.000236883
0.000236245
0.000235522
0.000234742
0.000234251
0.000234109
0.000234087
0.000234376
0.000235139
0.000236324
0.000237999
0.000239912
0.000242139
0.000244404
0.000246984
0.000250743
0.000256905
0.000266326
0.000280209
0.000298429
0.000298568
0.000108721
0.000178326
0.000215955
0.000236338
0.000244974
0.000247897
0.000248233
0.000245573
0.000243118
0.000240551
0.000238967
0.00023786
0.000236713
0.0002357
0.000234713
0.000233664
0.000232961
0.000232692
0.000232665
0.000232993
0.000233655
0.000234579
0.000236062
0.000237793
0.000239824
0.000242093
0.000244832
0.00024907
0.000255874
0.000266005
0.000280361
0.000299929
0.000325133
0.000334034
0.000107325
0.000151531
0.000224871
0.000242006
0.000249084
0.000250991
0.000250216
0.000247495
0.000244795
0.000241884
0.000239726
0.000238242
0.000236785
0.000235594
0.000234407
0.000233149
0.000232281
0.000231892
0.000231875
0.000232153
0.00023273
0.00023357
0.000234915
0.000236644
0.000238691
0.00024132
0.000244145
0.000248764
0.000256474
0.000267103
0.000281551
0.000300392
0.000324332
0.000324804
0.000147639
0.000195721
0.000247773
0.000252828
0.000253796
0.000252374
0.00024967
0.000246726
0.000243537
0.000240817
0.000238936
0.000237246
0.000235829
0.000234447
0.000233125
0.000232128
0.000231568
0.000231504
0.000231748
0.000232276
0.000233167
0.000234478
0.000236251
0.000238423
0.000241188
0.000245063
0.00025004
0.000258616
0.000269391
0.000283699
0.000302413
0.000327063
0.000327652
0.000250527
0.000255135
0.000255578
0.000253829
0.000251131
0.000248044
0.000244868
0.000242081
0.000239896
0.000237913
0.000236265
0.000234851
0.000233487
0.000232439
0.000231943
0.000231906
0.000232168
0.000232798
0.000233958
0.000235619
0.00023783
0.000240339
0.000243329
0.000247913
0.000253475
0.000261845
0.000272785
0.000287115
0.000305942
0.000330788
0.00033128
0.00021509
0.000255375
0.000255856
0.00025388
0.000251245
0.000248443
0.000245751
0.000243156
0.000240803
0.00023868
0.000236938
0.000235463
0.000234144
0.000233274
0.000233016
0.000233138
0.000233519
0.000234342
0.000235942
0.000238255
0.000241112
0.000243999
0.000247349
0.000251987
0.000258182
0.000266283
0.000277303
0.000291904
0.000311465
0.000336416
0.000335172
0.000184774
0.000248509
0.00025608
0.000256584
0.00025429
0.000251438
0.00024886
0.000246631
0.000244154
0.000241656
0.000239686
0.000237942
0.000236423
0.000235285
0.000234549
0.000234296
0.00023487
0.000235289
0.000236482
0.000238195
0.00024169
0.000245608
0.000249155
0.000253142
0.000258258
0.000264508
0.000272433
0.00028332
0.000298355
0.000318382
0.000344753
0.000348117
5.04707e-05
7.06957e-05
0.000112164
0.000164878
0.000238791
0.000253099
0.000258634
0.000258556
0.000255965
0.000252844
0.000250192
0.000247861
0.000245308
0.000242735
0.000240869
0.000239526
0.000237996
0.000236778
0.000236148
0.000235939
0.000236242
0.000237411
0.00023939
0.000241828
0.000246959
0.000251291
0.000256022
0.00026111
0.000266852
0.000272932
0.000280471
0.000291125
0.000306332
0.000326143
0.000321687
4.46768e-05
5.5899e-05
8.04224e-05
0.000123216
0.000211713
0.00024189
0.000256308
0.000260706
0.000260131
0.000257608
0.000254509
0.000251592
0.000249149
0.000246293
0.000243881
0.000241809
0.000240847
0.000239149
0.000238399
0.000238058
0.000238019
0.000238534
0.000239662
0.000241682
0.000245619
0.00025179
0.000258328
0.000264603
0.00027117
0.000277692
0.000283773
0.000291005
0.000301423
0.000316593
0.000304588
0.000333644
4.62205e-05
5.88186e-05
8.78037e-05
0.00013277
0.000213545
0.000242631
0.000257869
0.000262386
0.000261164
0.000258924
0.00025595
0.000252621
0.000249901
0.000246456
0.00024476
0.000243549
0.000242838
0.00024202
0.000241198
0.000240298
0.000240472
0.000241257
0.000242708
0.000245068
0.000247751
0.000253678
0.000265633
0.000275192
0.000283896
0.000291546
0.000297819
0.000304655
0.000314958
0.000330316
0.000316636
3.91759e-05
4.69904e-05
6.2142e-05
9.53042e-05
0.000172281
0.00021567
0.000242997
0.000257966
0.000262304
0.000261585
0.00026093
0.000257667
0.000253278
0.000250072
0.000246458
0.000244908
0.000244788
0.000244825
0.000244024
0.000243146
0.000242937
0.00024333
0.000244405
0.000246287
0.000249183
0.000253291
0.000262432
0.000277117
0.000288683
0.000300332
0.000309557
0.000315969
0.00032104
0.000332974
0.000313424
3.94329e-05
4.80423e-05
6.47107e-05
0.000101097
0.000178909
0.000218896
0.000245258
0.000259705
0.000263233
0.000261384
0.000260026
0.000257039
0.000252836
0.000249587
0.000246874
0.000245771
0.000246132
0.000246837
0.000246362
0.000245863
0.000245903
0.000246671
0.000248058
0.000250382
0.000253951
0.000259965
0.000270733
0.000287359
0.000305898
0.00032273
0.000333445
0.00033959
0.000314216
0.000325272
4.85764e-05
6.79468e-05
0.00010949
0.000186769
0.0002274
0.000249658
0.00026018
0.000261674
0.000260134
0.000257876
0.000254759
0.000251046
0.000248321
0.000246624
0.000246954
0.000248169
0.000249186
0.000249037
0.00024858
0.000249385
0.000250943
0.000252675
0.00025498
0.000259292
0.000266473
0.000279289
0.000300299
0.000289226
0.000323051
0.000340946
0.000343577
0.000348789
0.000106781
0.000156083
0.000196644
0.000253304
0.000259337
0.000258867
0.000256522
0.000253614
0.000250476
0.00024752
0.000245847
0.000245455
0.000247543
0.000250169
0.000251841
0.00025223
0.000252054
0.000252957
0.000255803
0.000257998
0.000260284
0.00026582
0.000275594
0.000288939
0.000313324
0.000319588
0.000201876
0.000223691
0.000255967
0.000253047
0.000250027
0.000247041
0.00024433
0.000242669
0.000242658
0.000244021
0.000247979
0.000252152
0.000254924
0.000256358
0.000257125
0.000258611
0.000261147
0.000263936
0.000267364
0.000273891
0.000284317
0.000299191
0.000323307
0.000333181
0.000223283
0.000242653
0.000240023
0.000238232
0.000236653
0.000236592
0.000238737
0.000242496
0.000248472
0.000254316
0.000258419
0.000261125
0.000262972
0.000265198
0.000267585
0.000269832
0.000273466
0.000279176
0.000289035
0.000305137
0.000328813
0.000333559
0.000208232
0.000227791
0.00022576
0.000226021
0.000226697
0.0002291
0.000234154
0.000241077
0.000249072
0.000256684
0.000262282
0.000266247
0.000269112
0.000272022
0.000274622
0.000276727
0.000279783
0.000285868
0.000294547
0.000309613
0.000332798
0.000326551
0.000189212
0.000206964
0.000210671
0.000215124
0.000220895
0.000229006
0.000239232
0.000249267
0.000258746
0.000266258
0.000272032
0.00027629
0.000279721
0.000282676
0.000285197
0.000287811
0.00029311
0.000301989
0.000315355
0.000298859
0.000321497
0.000163359
0.000184734
0.000192591
0.000201299
0.00021107
0.00022287
0.000236051
0.00024833
0.000260248
0.000270429
0.000278867
0.000285219
0.000289317
0.000292419
0.000294826
0.000296272
0.000300031
0.000308917
0.000284274
0.000298236
0.000138589
0.000148204
0.000173836
0.000185854
0.000199758
0.000214988
0.000230765
0.000246203
0.000261319
0.000274996
0.000286881
0.000295801
0.00030218
0.000269347
0.000267502
0.000265317
0.000263829
0.00026911
0.000283553
0.000122211
0.000133586
0.000142911
0.000172361
0.000186927
0.000203179
0.000222218
0.000242092
0.000261142
0.000247282
0.00025895
0.000268934
0.000271912
0.000280938
0.0001218
0.000132388
0.000145401
0.000157941
0.000171459
0.00019012
0.000212779
0.000228357
0.000248512
0.000236497
0.000253246
0.00026962
0.000293333
0.000325413
0.00041009
0.000400029
0.000393374
0.00025238
0.000295748
0.000306719
0.000318627
0.000334438
0.000350088
0.000365203
0.000376164
0.00038541
0.000390557
0.000389646
0.000385267
0.000380196
0.000359584
0.000268125
0.000303907
0.000306668
0.000313548
0.000322341
0.000332792
0.000343233
0.000353037
0.000361263
0.000368024
0.000371289
0.000370524
0.000367621
0.000364621
0.000362928
0.000338926