/*--------------------------------*- C++ -*----------------------------------*\
| =========                 |                                                 |
| \\      /  F ield         | OpenFOAM: The Open Source CFD Toolbox           |
|  \\    /   O peration     | Version:  2206                                  |
|   \\  /    A nd           | Website:  www.openfoam.com                      |
|    \\/     M anipulation  |                                                 |
\*---------------------------------------------------------------------------*/
FoamFile
{
    version     2.0;
    format      ascii;
    arch        "LSB;label=32;scalar=64";
    class       volScalarField;
    location    "0";
    object      T;
}
// * * * * * * * * * * * * * * * * * * * * * * * * * * * * * * * * * * * * * //

dimensions      [0 0 0 1 0 0 0];

internalField   nonuniform List<scalar> 
114354
(
5.83529e-05
3.44288e-05
3.26411e-05
3.48745e-05
3.51316e-05
2.77886e-05
5.46289e-05
5.6907e-05
5.87826e-05
6.04208e-05
6.18017e-05
3.34618e-05
3.22804e-05
3.15213e-05
2.9288e-05
2.70103e-05
2.80113e-05
3.19411e-05
3.49788e-05
4.74799e-05
4.96432e-05
5.23942e-05
5.48395e-05
5.71119e-05
5.85471e-05
5.95865e-05
6.03294e-05
6.10131e-05
6.05746e-05
5.9646e-05
6.00521e-05
6.12406e-05
6.28135e-05
6.45492e-05
6.50704e-05
3.55063e-05
4.57257e-05
4.87585e-05
5.13715e-05
5.3694e-05
5.58217e-05
5.73503e-05
5.83352e-05
5.89067e-05
5.92381e-05
5.89302e-05
5.83849e-05
5.84176e-05
5.93623e-05
6.06679e-05
6.20155e-05
6.29778e-05
6.33576e-05
2.92547e-05
1.31762e-05
1.44851e-05
1.62963e-05
1.80589e-05
1.96528e-05
1.89119e-05
4.48624e-05
4.67718e-05
4.91843e-05
5.10604e-05
5.28405e-05
5.45292e-05
5.64132e-05
5.7434e-05
5.78434e-05
5.79305e-05
5.75974e-05
5.70729e-05
5.69893e-05
5.76936e-05
5.88763e-05
5.99818e-05
6.07805e-05
6.14695e-05
6.19157e-05
2.97855e-05
2.93708e-05
3.26805e-05
1.19662e-05
2.14064e-05
2.55276e-05
3.09246e-05
3.62745e-05
4.10262e-05
4.44831e-05
4.67027e-05
4.85997e-05
5.00826e-05
5.13582e-05
5.25185e-05
5.37963e-05
5.57042e-05
5.66736e-05
5.6932e-05
5.68894e-05
5.65278e-05
5.59784e-05
5.58313e-05
5.63565e-05
5.74623e-05
5.84858e-05
5.91425e-05
5.96846e-05
5.9815e-05
5.99241e-05
6.09785e-05
6.22324e-05
6.51841e-05
6.72802e-05
4.07813e-05
1.6667e-05
2.03394e-05
2.66834e-05
3.26157e-05
3.78744e-05
4.32238e-05
4.69875e-05
4.88282e-05
5.04634e-05
5.14828e-05
5.19354e-05
5.24664e-05
5.36033e-05
5.51924e-05
5.60389e-05
5.61571e-05
5.60057e-05
5.56235e-05
5.51062e-05
5.49342e-05
5.52739e-05
5.62763e-05
5.73322e-05
5.79021e-05
5.81207e-05
5.81828e-05
5.856e-05
5.9569e-05
6.0896e-05
6.29329e-05
6.50232e-05
6.8765e-05
3.97285e-05
1.46026e-05
1.85413e-05
2.49384e-05
3.17715e-05
3.9538e-05
4.60993e-05
4.88467e-05
5.06375e-05
5.25922e-05
5.28196e-05
5.27843e-05
5.28978e-05
5.35868e-05
5.45734e-05
5.54383e-05
5.55123e-05
5.52868e-05
5.48621e-05
5.43952e-05
5.42962e-05
5.45517e-05
5.53648e-05
5.63107e-05
5.67364e-05
5.67925e-05
5.69416e-05
5.74781e-05
5.841e-05
5.95874e-05
6.12221e-05
6.31868e-05
6.65399e-05
7.10919e-05
4.29294e-05
5.62224e-06
1.69362e-05
2.33592e-05
2.997e-05
3.76991e-05
4.51378e-05
4.93493e-05
5.20999e-05
5.4821e-05
5.39164e-05
5.3342e-05
5.33037e-05
5.37195e-05
5.42499e-05
5.49638e-05
5.49978e-05
5.47422e-05
5.43145e-05
5.38717e-05
5.38553e-05
5.40728e-05
5.46004e-05
5.53166e-05
5.55751e-05
5.57112e-05
5.60773e-05
5.67038e-05
5.75494e-05
5.85587e-05
6.00425e-05
6.20178e-05
6.51388e-05
6.96734e-05
7.72353e-05
4.87191e-05
2.31007e-06
5.23969e-06
2.12311e-05
2.81658e-05
3.59813e-05
4.27268e-05
4.80943e-05
5.10696e-05
5.38566e-05
5.4027e-05
5.32991e-05
5.34045e-05
5.39898e-05
5.43595e-05
5.46901e-05
5.46983e-05
5.44373e-05
5.3966e-05
5.35772e-05
5.36006e-05
5.37486e-05
5.3978e-05
5.44996e-05
5.47353e-05
5.49886e-05
5.54558e-05
5.60646e-05
5.68119e-05
5.77891e-05
5.90932e-05
6.11651e-05
6.44995e-05
6.93795e-05
7.65313e-05
4.94517e-05
2.60967e-06
1.87887e-05
2.73795e-05
3.43161e-05
4.12496e-05
4.68062e-05
5.01372e-05
5.26115e-05
5.33359e-05
5.32821e-05
5.36467e-05
5.4382e-05
5.45768e-05
5.44996e-05
5.44154e-05
5.41787e-05
5.37563e-05
5.34188e-05
5.34498e-05
5.35379e-05
5.36065e-05
5.39582e-05
5.4239e-05
5.45702e-05
5.50272e-05
5.56408e-05
5.64477e-05
5.75362e-05
5.85222e-05
6.05135e-05
6.42322e-05
6.92227e-05
7.64175e-05
8.43643e-05
8.28473e-05
1.44725e-06
7.14404e-06
1.28554e-05
3.26414e-05
3.98425e-05
4.54308e-05
4.86584e-05
5.1422e-05
5.27654e-05
5.33809e-05
5.41234e-05
5.45445e-05
5.45791e-05
5.4404e-05
5.41798e-05
5.39411e-05
5.36331e-05
5.33767e-05
5.33621e-05
5.3417e-05
5.34773e-05
5.3698e-05
5.39757e-05
5.43403e-05
5.47925e-05
5.5434e-05
5.61751e-05
5.71963e-05
5.86012e-05
6.10022e-05
6.47995e-05
6.98593e-05
7.68757e-05
8.78577e-05
5.84882e-05
5.08077e-06
1.04547e-05
3.08245e-05
3.75348e-05
4.39706e-05
4.75843e-05
5.05763e-05
5.23425e-05
5.32331e-05
5.41545e-05
5.43668e-05
5.4335e-05
5.42529e-05
5.40569e-05
5.38311e-05
5.36069e-05
5.34021e-05
5.33512e-05
5.3417e-05
5.3521e-05
5.37139e-05
5.41058e-05
5.43417e-05
5.48466e-05
5.5547e-05
5.63181e-05
5.75482e-05
5.96113e-05
6.24733e-05
6.605e-05
7.10371e-05
7.80329e-05
8.71195e-05
6.31186e-05
3.23126e-06
7.30914e-06
9.77488e-06
3.04689e-05
3.73799e-05
4.34382e-05
4.7265e-05
4.99936e-05
5.17902e-05
5.28861e-05
5.36806e-05
5.39052e-05
5.39512e-05
5.39511e-05
5.38092e-05
5.36861e-05
5.36278e-05
5.34785e-05
5.34404e-05
5.35225e-05
5.37024e-05
5.39276e-05
5.44685e-05
5.4584e-05
5.52921e-05
5.61838e-05
5.71088e-05
5.86977e-05
6.10293e-05
6.41826e-05
6.80066e-05
7.31676e-05
8.03487e-05
5.18043e-05
8.72619e-05
5.0876e-06
1.50592e-05
1.94146e-05
2.41205e-05
3.21218e-05
3.93453e-05
4.47129e-05
4.79132e-05
5.00616e-05
5.1544e-05
5.25297e-05
5.3125e-05
5.34517e-05
5.35883e-05
5.3772e-05
5.37609e-05
5.37447e-05
5.37282e-05
5.36209e-05
5.35905e-05
5.36726e-05
5.39295e-05
5.42403e-05
5.45187e-05
5.52909e-05
5.60189e-05
5.66418e-05
5.80034e-05
6.01921e-05
6.28598e-05
6.64554e-05
7.05904e-05
7.59822e-05
8.44387e-05
5.11516e-05
1.54166e-05
1.78051e-05
2.16478e-05
2.81466e-05
3.60577e-05
4.23144e-05
4.68444e-05
4.96605e-05
5.15175e-05
5.24692e-05
5.29051e-05
5.32822e-05
5.36253e-05
5.37279e-05
5.40406e-05
5.41298e-05
5.41207e-05
5.39816e-05
5.38352e-05
5.38263e-05
5.39171e-05
5.41777e-05
5.39847e-05
5.50399e-05
5.60652e-05
5.62853e-05
5.80626e-05
5.98751e-05
6.20726e-05
6.52809e-05
6.92937e-05
7.36977e-05
7.98574e-05
8.86375e-05
5.78036e-05
7.06014e-06
1.58672e-05
1.93609e-05
2.46138e-05
3.23187e-05
3.98385e-05
4.57953e-05
4.94995e-05
5.1831e-05
5.31551e-05
5.35023e-05
5.3563e-05
5.38423e-05
5.41073e-05
5.42087e-05
5.4184e-05
5.46076e-05
5.45332e-05
5.43107e-05
5.41083e-05
5.41297e-05
5.42759e-05
5.45497e-05
5.50635e-05
5.55047e-05
5.54645e-05
5.68534e-05
5.91936e-05
6.14807e-05
6.45305e-05
6.83495e-05
7.28491e-05
7.83316e-05
8.50006e-05
5.26914e-05
7.55134e-06
1.74351e-05
2.11389e-05
2.70154e-05
3.67188e-05
4.42306e-05
4.91809e-05
5.16414e-05
5.35199e-05
5.44038e-05
5.44094e-05
5.41768e-05
5.42683e-05
5.44646e-05
5.43718e-05
5.48963e-05
5.52995e-05
5.50348e-05
5.49441e-05
5.46203e-05
5.45513e-05
5.47586e-05
5.50853e-05
5.56088e-05
5.64645e-05
5.75327e-05
6.08443e-05
6.11513e-05
6.31076e-05
6.72736e-05
7.28367e-05
7.85261e-05
8.42448e-05
5.065e-05
1.5568e-05
1.88018e-05
2.40322e-05
3.07329e-05
4.10629e-05
4.75606e-05
5.10446e-05
5.37935e-05
5.53363e-05
5.56529e-05
5.51395e-05
5.46702e-05
5.44283e-05
5.45021e-05
5.49285e-05
5.54701e-05
5.51591e-05
5.54465e-05
5.55875e-05
5.53709e-05
5.51568e-05
5.53083e-05
5.57251e-05
5.63565e-05
5.7245e-05
5.86852e-05
6.00399e-05
6.15159e-05
6.67388e-05
7.26373e-05
7.72911e-05
4.69697e-05
4.98003e-05
7.77109e-05
1.59244e-05
1.90454e-05
2.46508e-05
3.14444e-05
3.93667e-05
4.62885e-05
5.06268e-05
5.40226e-05
5.57073e-05
5.61157e-05
5.56709e-05
5.52203e-05
5.47787e-05
5.45962e-05
5.50497e-05
5.54946e-05
5.56412e-05
5.5846e-05
5.59727e-05
5.58901e-05
5.57615e-05
5.59798e-05
5.64844e-05
5.72295e-05
5.8282e-05
5.97698e-05
6.19568e-05
6.56819e-05
3.0154e-05
3.37562e-05
4.19258e-05
6.90556e-05
9.06448e-06
1.90783e-05
2.41372e-05
3.11094e-05
3.89285e-05
4.6058e-05
5.0881e-05
5.36889e-05
5.48515e-05
5.53599e-05
5.52195e-05
5.47865e-05
5.43088e-05
5.41996e-05
5.47491e-05
5.57212e-05
5.62948e-05
5.65475e-05
5.66443e-05
5.63869e-05
5.62668e-05
5.66491e-05
5.73583e-05
5.82333e-05
5.94761e-05
6.12167e-05
6.33076e-05
3.1843e-05
2.10128e-05
1.19462e-05
1.36117e-05
3.02087e-05
3.77118e-05
4.66612e-05
5.05088e-05
5.27757e-05
5.37608e-05
5.42386e-05
5.41947e-05
5.35494e-05
5.30622e-05
5.34792e-05
5.45031e-05
5.61682e-05
5.7047e-05
5.73279e-05
5.74537e-05
5.71951e-05
5.71538e-05
5.73629e-05
5.81991e-05
5.93452e-05
6.07957e-05
6.28651e-05
6.563e-05
3.4411e-05
2.45781e-05
2.98866e-05
2.30029e-05
4.86001e-05
5.11813e-05
5.22658e-05
5.2797e-05
5.27271e-05
5.18741e-05
5.16302e-05
5.28464e-05
5.48706e-05
5.68263e-05
5.78335e-05
5.81971e-05
5.84004e-05
5.81984e-05
5.80485e-05
5.83317e-05
5.9058e-05
6.03969e-05
6.23746e-05
6.51406e-05
6.86982e-05
3.43751e-05
2.3067e-05
5.12512e-05
5.04638e-05
5.10035e-05
5.07948e-05
4.96272e-05
4.9876e-05
5.22464e-05
5.54692e-05
5.75928e-05
5.87226e-05
5.92413e-05
5.96065e-05
5.94717e-05
5.92209e-05
5.94594e-05
6.03436e-05
6.25537e-05
6.53843e-05
6.71864e-05
7.26685e-05
3.83339e-05
2.2552e-05
4.80135e-05
4.90188e-05
4.91324e-05
4.78358e-05
4.77758e-05
5.14812e-05
5.57568e-05
5.83726e-05
5.98392e-05
6.06179e-05
6.10774e-05
6.08604e-05
6.05078e-05
6.0517e-05
6.11362e-05
6.25957e-05
6.47613e-05
6.80231e-05
7.54612e-05
4.37477e-05
2.14488e-05
4.54178e-05
4.68329e-05
4.80905e-05
4.93512e-05
4.97056e-05
5.18716e-05
5.60447e-05
5.9016e-05
6.10474e-05
6.23113e-05
6.28127e-05
6.24345e-05
6.18541e-05
6.14246e-05
6.1601e-05
6.27788e-05
6.54123e-05
7.05653e-05
7.69808e-05
4.72022e-05
4.33296e-05
4.46147e-05
4.42808e-05
4.63844e-05
4.96192e-05
5.28017e-05
5.63096e-05
5.95022e-05
6.23427e-05
6.4201e-05
6.49313e-05
6.44988e-05
6.33541e-05
6.21957e-05
6.2063e-05
6.32606e-05
6.62327e-05
7.1936e-05
4.44966e-05
6.90172e-05
4.21949e-05
4.47848e-05
4.45811e-05
4.66669e-05
4.97758e-05
5.27798e-05
5.63223e-05
6.01206e-05
6.42744e-05
6.69966e-05
6.78875e-05
6.72379e-05
6.54518e-05
6.2513e-05
3.18384e-05
3.18538e-05
3.45068e-05
3.65856e-05
4.51737e-05
2.65688e-05
4.42057e-05
4.4603e-05
4.6101e-05
4.91856e-05
5.23994e-05
5.65388e-05
6.01458e-05
3.74824e-05
3.62156e-05
3.45788e-05
3.59762e-05
3.72964e-05
3.28933e-05
3.03646e-05
3.00697e-05
4.31258e-05
2.75493e-05
2.34091e-05
2.41067e-05
2.68587e-05
2.83178e-05
3.09035e-05
3.46773e-05
5.10122e-05
3.67665e-05
3.86853e-05
0.000149691
0.00015478
0.000159308
0.000144013
0.00014961
0.000122939
0.000151013
0.000155287
0.000160166
0.00016588
0.000171663
0.000176518
0.000154756
0.000157842
0.000153744
0.00014376
0.000159241
0.00016536
0.000164693
0.000167427
0.000148157
0.00015094
0.000155003
0.000159175
0.000164168
0.000169358
0.000173849
0.00017753
0.000179384
0.000180054
0.000180978
0.000184042
0.000185783
0.000186597
0.000184863
0.00016017
0.00011426
0.000147617
0.000151355
0.000154834
0.000158263
0.000162869
0.000167399
0.000170726
0.00017301
0.000174303
0.000174813
0.000175467
0.000177063
0.000178554
0.000179983
0.000180371
0.000182938
0.000162461
4.5611e-05
5.31882e-05
6.36061e-05
7.66336e-05
9.05227e-05
9.94118e-05
0.000107996
0.000145969
0.000149396
0.000152577
0.000155333
0.000158081
0.000162121
0.000165842
0.000168115
0.000169427
0.000170089
0.00017016
0.000170487
0.000171582
0.000172928
0.000174558
0.000175367
0.000177557
0.000180343
0.000153491
0.000157499
0.000161054
0.000164687
0.000176728
3.73323e-05
5.31461e-05
6.56552e-05
8.3315e-05
0.000102135
0.000119542
0.000132716
0.000142236
0.000148406
0.000152044
0.000154148
0.000156049
0.000158484
0.000161725
0.000164604
0.000165983
0.000166603
0.000166724
0.000166355
0.000166473
0.000167387
0.000168788
0.000170354
0.000171417
0.000172887
0.000174513
0.000176353
0.00017952
0.000182824
0.000185615
0.000188852
0.000165454
0.000179136
4.02575e-05
5.39666e-05
6.83766e-05
8.79149e-05
0.00011019
0.000126886
0.000139659
0.00014788
0.000152686
0.000155064
0.000156293
0.000157106
0.000159104
0.000161421
0.000163488
0.00016416
0.00016432
0.000164076
0.000163489
0.000163473
0.000164177
0.000165594
0.000167036
0.000168152
0.000169224
0.00017042
0.000171977
0.000174548
0.000177382
0.00018047
0.000183891
0.000189235
0.000198354
0.000178825
3.0979e-05
4.16692e-05
6.91112e-05
9.00718e-05
0.000113873
0.000133157
0.000146801
0.000152872
0.000156777
0.000158213
0.000158612
0.000158658
0.000159624
0.00016101
0.000162451
0.000162651
0.000162477
0.000162009
0.000161364
0.000161296
0.000161768
0.000162993
0.000164259
0.000165185
0.000166069
0.000167232
0.000168743
0.000171002
0.000173537
0.000176637
0.000180386
0.000186187
0.000195004
0.000207954
0.000193052
3.9741e-05
6.86686e-05
8.97917e-05
0.000113543
0.000133813
0.000148441
0.00015625
0.000160439
0.000161304
0.000160338
0.000159939
0.000160047
0.000160887
0.000161663
0.000161467
0.000161027
0.000160392
0.000159763
0.000159703
0.000160027
0.00016088
0.000161864
0.000162564
0.000163437
0.000164743
0.000166291
0.000168332
0.000170609
0.000173539
0.00017764
0.000184023
0.000193568
0.000207233
0.000226693
5.19463e-05
8.88229e-05
0.000112376
0.000132706
0.000147426
0.000156876
0.000161772
0.000162385
0.000161021
0.00016073
0.000160644
0.00016083
0.000160865
0.000160472
0.000159965
0.000159332
0.000158724
0.000158551
0.000158743
0.000159227
0.000159991
0.00016064
0.000161521
0.00016286
0.000164429
0.000166309
0.000168552
0.000171347
0.000175716
0.000182573
0.000192708
0.000206776
0.000226482
0.000216785
4.71911e-05
6.67074e-05
0.000109921
0.000131225
0.00014595
0.000155478
0.000160411
0.000161662
0.000160951
0.000160898
0.000161326
0.000160824
0.000160186
0.000159866
0.00015946
0.000158747
0.000158052
0.000157786
0.00015788
0.000158116
0.000158719
0.000159417
0.000160306
0.000161596
0.000163202
0.000165157
0.000167721
0.000170201
0.000174774
0.000182559
0.000193117
0.000207384
0.000226142
0.000212689
5.802e-05
8.09471e-05
0.000131705
0.000144467
0.000153921
0.000159285
0.00016139
0.000161758
0.000161881
0.000161813
0.000160678
0.000159828
0.000159929
0.000158937
0.000158271
0.000157678
0.000157309
0.000157296
0.000157496
0.000157983
0.000158694
0.000159636
0.000160918
0.000162555
0.000164637
0.000167267
0.000170628
0.00017609
0.000184215
0.000194929
0.0002093
0.000228089
0.000217238
6.54148e-05
9.51306e-05
0.00014285
0.000152197
0.000157802
0.000160876
0.00016191
0.000162161
0.000161698
0.000160846
0.00015975
0.000159116
0.000158487
0.000158089
0.00015763
0.000157124
0.000157145
0.000157424
0.000157895
0.000158655
0.00015976
0.000161236
0.000163046
0.000165305
0.000168148
0.000172836
0.000179192
0.000187119
0.000197759
0.000212266
0.000231964
0.00021758
5.84236e-05
9.1136e-05
0.000141089
0.000151251
0.000156543
0.000159711
0.000160833
0.000161354
0.000161169
0.000160394
0.00015983
0.000159049
0.000158872
0.000157726
0.000157326
0.000157254
0.000157428
0.000157851
0.000158423
0.000159306
0.000160673
0.000162512
0.000164882
0.000167601
0.000171123
0.000176294
0.000183115
0.000191263
0.000202251
0.000217656
0.000239168
0.000224398
3.11827e-05
3.95233e-05
5.26326e-05
7.42519e-05
0.000126819
0.0001422
0.000152059
0.000157058
0.00015932
0.000160033
0.000160654
0.000160736
0.000160354
0.000159854
0.000159121
0.000159031
0.000158251
0.000157833
0.000157672
0.000157866
0.000158455
0.00015927
0.000160333
0.000161918
0.000164182
0.00016746
0.000171058
0.000175318
0.000181181
0.000188475
0.000196801
0.0002084
0.00022417
0.000244772
0.000231591
3.02386e-05
4.74804e-05
6.4176e-05
8.88565e-05
0.00011615
0.000135352
0.000147404
0.000155787
0.000159956
0.000160808
0.000160824
0.00016115
0.0001611
0.00016078
0.000160473
0.000159507
0.000159456
0.000158896
0.000158426
0.000158345
0.000158565
0.000159221
0.000160339
0.000161816
0.000163713
0.000166604
0.000170379
0.000175166
0.000180803
0.000187376
0.000195157
0.000204306
0.000216458
0.000233116
0.000214618
0.00025612
2.88604e-05
4.18396e-05
5.1954e-05
7.02787e-05
9.59356e-05
0.000123046
0.000141969
0.000152538
0.000159486
0.000162585
0.000162693
0.000162209
0.000162299
0.00016183
0.000161264
0.00016114
0.000160729
0.000160781
0.000159832
0.000159241
0.000159276
0.000159625
0.000160336
0.000161598
0.000163506
0.000166057
0.000169828
0.000175073
0.000181556
0.000188162
0.000196034
0.000204714
0.000214455
0.000226262
0.000243216
0.000230109
3.09176e-05
4.36943e-05
5.56746e-05
7.69552e-05
0.000104094
0.000129721
0.000147002
0.000157101
0.00016285
0.000164982
0.00016434
0.000163534
0.000163234
0.000162111
0.00016155
0.000160865
0.000160776
0.000161117
0.000160992
0.000160473
0.000160442
0.000160948
0.000161875
0.000163275
0.000165479
0.000169418
0.000173924
0.000180225
0.000189184
0.000197728
0.000207684
0.000217446
0.000228074
0.000238239
0.000218179
3.19417e-05
4.51565e-05
5.89726e-05
8.22466e-05
0.000109922
0.00013284
0.000149168
0.000159662
0.000165841
0.00016669
0.00016552
0.000164726
0.000163691
0.000161963
0.000161833
0.000161535
0.000161623
0.000161967
0.000162116
0.000161961
0.000161949
0.000162572
0.000163726
0.00016545
0.000167954
0.000171489
0.000176372
0.000186268
0.000198799
0.00021067
0.000223834
0.00023457
0.000246903
0.000217381
3.20965e-05
4.63551e-05
6.21798e-05
8.76828e-05
0.000113828
0.000135492
0.000150973
0.000160891
0.000166339
0.000166719
0.000165674
0.000164741
0.000163379
0.000161839
0.000162089
0.000162566
0.000162946
0.000163449
0.000163458
0.000163505
0.000161874
0.000164133
0.000165935
0.000168006
0.000171007
0.00017538
0.000181719
0.000192687
0.000169371
0.00018039
0.000198487
0.000217701
0.000236856
3.21366e-05
4.71162e-05
6.37586e-05
8.96136e-05
0.000115698
0.000138556
0.000152851
0.00016071
0.000164506
0.000165118
0.000164295
0.000163104
0.000161642
0.000160684
0.000161504
0.000163194
0.00016457
0.000165162
0.000165202
0.000165104
0.000165514
0.000166536
0.000168235
0.000170925
0.000174465
0.000179717
0.000187706
0.000164522
3.87464e-05
4.94151e-05
6.70911e-05
9.12587e-05
0.000141326
0.000153325
0.00015918
0.000161923
0.000162309
0.0001614
0.000159847
0.000158646
0.000158564
0.000160455
0.00016362
0.000166088
0.000166978
0.00016728
0.000167226
0.000167577
0.000168995
0.00017127
0.000173911
0.000178272
0.000184314
0.000195939
0.000168747
6.27911e-05
8.86521e-05
0.000110523
0.000152523
0.000155978
0.000157817
0.000158038
0.000157069
0.000155336
0.000154792
0.000156365
0.000159779
0.000164179
0.000167632
0.000168987
0.000169781
0.000170087
0.00017042
0.000171874
0.000174029
0.000177579
0.00018254
0.000190205
0.000203117
0.000179241
0.000116817
0.000151229
0.00015162
0.000152071
0.000151238
0.000149721
0.000149992
0.000153949
0.000159506
0.00016504
0.000169415
0.000171383
0.000172737
0.000173512
0.000174047
0.000175222
0.000177287
0.000180286
0.000187535
0.000196864
0.000207804
0.000186071
0.000118407
0.000143132
0.000144283
0.000144252
0.000143874
0.000145208
0.000151285
0.000159229
0.000166367
0.000171649
0.000174396
0.000176261
0.000177325
0.000177976
0.000178936
0.00018068
0.000184339
0.000190306
0.000200857
0.000211791
0.000191421
0.000103648
0.000131188
0.000134608
0.000136705
0.000137192
0.000141925
0.000149867
0.000159067
0.000167427
0.000173761
0.00017772
0.000180393
0.000181781
0.000182373
0.000182965
0.000184095
0.00018687
0.000192674
0.000201707
0.000215028
0.000195606
0.00011903
0.000124453
0.000130099
0.000135569
0.000140961
0.000148484
0.000158345
0.000167612
0.00017554
0.000181318
0.000185146
0.000187002
0.000187155
0.000186547
0.00018631
0.000187544
0.000192615
0.000201391
0.000215719
0.000195876
0.000111715
0.000116045
0.000121078
0.000128949
0.000137283
0.000146432
0.000156929
0.000167641
0.000177855
0.000185721
0.000190744
0.000192742
0.00019218
0.000157344
0.000153124
0.000152843
0.000157105
0.000168861
0.000176664
9.3634e-05
0.000111439
0.000114679
0.000123922
0.000133412
0.000143007
0.000154529
0.000167466
0.000179852
0.000163311
0.000167387
0.000166974
0.000163225
0.000158222
0.000142661
9.68956e-05
9.99795e-05
0.000104222
0.000110898
0.00011847
0.000128585
0.000137898
0.000155772
0.000174063
0.000107217
0.000114854
0.000129372
0.000196627
0.000205281
0.000201293
0.000231493
0.000242942
0.000230888
0.000241419
0.000261353
0.000204957
0.000236291
0.000242538
0.000250553
0.000260422
0.000272186
0.000285702
0.000268807
0.000275251
0.000285344
0.000297029
0.000295959
0.000319711
0.000315568
0.000281651
0.000214667
0.00024458
0.000249229
0.000254726
0.000262598
0.000271759
0.000281074
0.000289451
0.000296655
0.00030178
0.000304805
0.000305594
0.00030422
0.000301334
0.000296642
0.000269172
0.000275228
0.000250584
0.000251163
0.000253678
0.000257118
0.000263398
0.000270392
0.000276694
0.000282335
0.000287374
0.000291128
0.000293125
0.000293541
0.000292036
0.000290284
0.000288205
0.000288576
0.000290251
0.00027939
7.60811e-05
9.40795e-05
0.000118256
0.000149079
0.000199056
0.000253992
0.00025406
0.000256277
0.000257605
0.00025957
0.000263992
0.000268876
0.000272895
0.000276488
0.000279748
0.000282136
0.000283537
0.000284096
0.000282727
0.000281499
0.000281182
0.000283217
0.00028636
0.000289856
0.000271225
0.000275364
0.000278477
0.000281929
6.51489e-05
8.15531e-05
0.000105339
0.000163456
0.000200483
0.000227265
0.000243853
0.000253835
0.000258421
0.000260242
0.000260734
0.000261691
0.000264387
0.000267428
0.000269847
0.000271957
0.0002736
0.000274645
0.000275568
0.0002764
0.000275672
0.000275024
0.000275577
0.000277683
0.000280436
0.000283949
0.000288397
0.00029209
0.000294076
0.000296237
0.000300079
0.000280932
4.97188e-05
6.77684e-05
8.75878e-05
0.000136494
0.000177154
0.0002135
0.000238437
0.000251481
0.000258939
0.000262157
0.000263205
0.000263013
0.000263163
0.000264627
0.000266248
0.000267457
0.000268501
0.000269012
0.000269243
0.000269673
0.000270304
0.000270171
0.000270115
0.000271153
0.000272999
0.000275316
0.000278079
0.000281623
0.000284895
0.000287415
0.000290433
0.000295251
0.000303556
0.000289811
6.84923e-05
9.09596e-05
0.000146502
0.000187522
0.000223805
0.000247815
0.000258076
0.000263565
0.000265973
0.000265966
0.000264922
0.000264333
0.000264809
0.000265315
0.000265609
0.000265896
0.00026578
0.000265581
0.000265605
0.000265866
0.000266003
0.000266327
0.000267435
0.000269139
0.000271267
0.0002737
0.000276703
0.000279706
0.00028251
0.000286114
0.000291835
0.000300858
0.000314237
0.000303982
9.07821e-05
0.00012467
0.000194537
0.00023155
0.000253279
0.000262245
0.000267113
0.000269612
0.000268298
0.00026671
0.000265258
0.000264797
0.000264604
0.000264237
0.000263907
0.000263414
0.000262879
0.000262641
0.000262755
0.000262981
0.000263504
0.000264507
0.000266005
0.00026805
0.000270347
0.000273022
0.000275762
0.000278803
0.000283042
0.000289712
0.000299604
0.000313706
0.000331509
0.000327894
0.000125855
0.000197791
0.000235767
0.000257177
0.000266835
0.000270715
0.000271953
0.00026986
0.00026793
0.0002658
0.000264634
0.000263935
0.000263137
0.000262412
0.000261678
0.000260878
0.000260434
0.000260461
0.000260728
0.000261339
0.000262299
0.000263578
0.000265479
0.000267687
0.000270234
0.000273038
0.000276385
0.000281284
0.000288853
0.00029976
0.000314726
0.000334475
0.000359155
0.000365736
0.000123278
0.000168683
0.000243993
0.000261969
0.000270065
0.000272939
0.000273036
0.000270934
0.000268781
0.000266283
0.000264518
0.000263423
0.000262315
0.000261396
0.00026048
0.000259494
0.000258913
0.000258818
0.00025912
0.000259744
0.000260672
0.000261893
0.000263703
0.000265993
0.000268638
0.00027193
0.000275447
0.00028088
0.000289588
0.000301235
0.000316588
0.000335893
0.000359479
0.000356162
0.000163203
0.000212249
0.000266953
0.000272985
0.000274945
0.000274377
0.00027236
0.000269963
0.000267157
0.000264795
0.000263286
0.000261908
0.000260785
0.000259691
0.000258652
0.000257948
0.00025771
0.000257978
0.000258593
0.00025953
0.00026084
0.000262682
0.00026507
0.000267898
0.000271423
0.00027618
0.000282118
0.000291873
0.000303834
0.000319266
0.000338697
0.00036346
0.00036058
0.000268712
0.000274466
0.000275917
0.000275021
0.000273021
0.000270469
0.000267709
0.000265297
0.000263458
0.00026178
0.000260435
0.000259311
0.000258259
0.000257511
0.000257362
0.000257697
0.000258348
0.000259423
0.000261111
0.000263363
0.000266261
0.000269515
0.000273336
0.000278964
0.000285629
0.000295301
0.000307595
0.000323175
0.000342921
0.00036818
0.000365551
0.000229973
0.000273691
0.000275292
0.00027419
0.000272258
0.000270019
0.000267785
0.000265594
0.000263591
0.000261796
0.000260367
0.000259204
0.000258214
0.00025766
0.000257766
0.000258303
0.000259136
0.000260432
0.000262628
0.000265629
0.000269318
0.000273062
0.000277344
0.000283086
0.000290513
0.000299994
0.000312493
0.00032851
0.00034921
0.000374719
0.000370624
0.0001964
0.000264247
0.000273498
0.000275179
0.000273749
0.000271617
0.000269658
0.000267941
0.000265889
0.000263751
0.000262119
0.000260703
0.000259489
0.000258683
0.000258307
0.000258431
0.000259482
0.000260362
0.000262102
0.000264452
0.000268805
0.0002737
0.000278209
0.00028329
0.000289627
0.000297182
0.000306552
0.000319002
0.000335615
0.000356924
0.000384026
0.000385442
5.76392e-05
7.86734e-05
0.000121377
0.000175328
0.000252256
0.000268395
0.000275472
0.000276541
0.000274821
0.000272386
0.000270357
0.000268543
0.000266414
0.000264188
0.000262693
0.000261713
0.000260505
0.000259602
0.000259349
0.000259551
0.000260306
0.000262004
0.000264637
0.000267794
0.000273974
0.000279361
0.000285241
0.000291607
0.000298714
0.000306183
0.000315208
0.000327518
0.000344396
0.000365506
0.000359088
5.1545e-05
6.33977e-05
8.88311e-05
0.000132585
0.000223491
0.00025517
0.000271268
0.00027705
0.000277568
0.000275928
0.000273521
0.000271203
0.000269269
0.000266811
0.000264768
0.000263039
0.00026249
0.000261112
0.000260726
0.000260793
0.000261186
0.000262159
0.000263833
0.000266509
0.0002713
0.000278651
0.000286487
0.000294138
0.000302205
0.00031027
0.000317793
0.000326551
0.000338706
0.000355665
0.000341989
0.000372609
5.32262e-05
6.63599e-05
9.63718e-05
0.000142097
0.000225072
0.000255695
0.00027254
0.000278364
0.000278153
0.000276797
0.000274515
0.000271728
0.000269506
0.0002664
0.000265121
0.000264314
0.000264037
0.000263627
0.000263185
0.000262617
0.00026326
0.000264544
0.000266567
0.000269587
0.000272992
0.000280063
0.000293866
0.000305178
0.000315668
0.00032506
0.000332845
0.000341248
0.000353399
0.000370678
0.000355366
4.55681e-05
5.41157e-05
6.98668e-05
0.000104119
0.000182915
0.000227052
0.000255899
0.000272407
0.000277954
0.000278226
0.000278499
0.000275881
0.000271954
0.000269198
0.000265918
0.000264793
0.000265144
0.000265652
0.000265276
0.00026476
0.00026494
0.000265814
0.000267446
0.000269925
0.000273519
0.000278461
0.000288933
0.000305713
0.000319238
0.000333053
0.000344229
0.000352241
0.000358784
0.000372771
0.000351891
4.58503e-05
5.53178e-05
7.26305e-05
0.000110189
0.000189901
0.00023044
0.000258235
0.000274121
0.000278789
0.000277806
0.000277243
0.000274885
0.000271116
0.000268278
0.000265942
0.00026529
0.000266144
0.000267361
0.000267334
0.000267256
0.000267728
0.000268976
0.000270919
0.000273891
0.00027822
0.000285188
0.000297314
0.00031598
0.00033702
0.000356574
0.000369363
0.000377085
0.000350672
0.000363509
5.58819e-05
7.64359e-05
0.000119889
0.000198612
0.00023952
0.000262928
0.00027468
0.000277164
0.000276433
0.000274835
0.000272241
0.000268931
0.000266603
0.000265324
0.000266183
0.00026795
0.000269503
0.000269814
0.000269778
0.000271114
0.000273248
0.000275545
0.000278469
0.000283555
0.000291697
0.000305883
0.00032882
0.000317477
0.00035535
0.000375823
0.000379892
0.000386802
0.000117021
0.000167116
0.000207759
0.000266996
0.000274055
0.000274364
0.00027269
0.000270321
0.000267621
0.000265045
0.000263773
0.000263827
0.000266522
0.0002698
0.000272042
0.000272924
0.000273195
0.000274638
0.000278165
0.000280957
0.000283876
0.000290261
0.000301103
0.000315653
0.000341616
0.000347972
0.000213518
0.000236214
0.000270944
0.000268604
0.000266076
0.000263508
0.000261156
0.000259861
0.000260305
0.000262179
0.000266822
0.000271715
0.000275092
0.000277108
0.000278393
0.000280471
0.000283663
0.000287134
0.00029129
0.000298744
0.000310255
0.000326289
0.000351645
0.00036122
0.000236994
0.00025826
0.000256002
0.000254544
0.000253243
0.00025353
0.000256182
0.000260554
0.000267281
0.000273909
0.000278712
0.000282062
0.000284506
0.000287378
0.000290442
0.000293367
0.000297784
0.000304363
0.000315274
0.000332528
0.000357368
0.000361229
0.00022215
0.000243573
0.00024172
0.000242221
0.000243164
0.000245943
0.000251554
0.000259207
0.00026801
0.000276456
0.00028282
0.00028751
0.000291068
0.000294649
0.000297972
0.000300788
0.000304636
0.000311674
0.000321362
0.000337559
0.000361969
0.000354241
0.000203838
0.000222975
0.000226888
0.000231661
0.00023785
0.000246564
0.000257584
0.000268484
0.000278872
0.000287199
0.000293783
0.000298811
0.000302995
0.000306728
0.000310025
0.000313486
0.00031976
0.000329797
0.00034434
0.000326227
0.000349852
0.000177928
0.000200887
0.000209031
0.000218154
0.000228395
0.000240846
0.000254862
0.000268022
0.000280888
0.000291995
0.000301385
0.000308617
0.000313515
0.00031743
0.000320707
0.000322994
0.000327732
0.00033794
0.00031178
0.000326789
0.000153003
0.00016306
0.000190727
0.000203273
0.000217762
0.000233699
0.000250284
0.00026664
0.000282756
0.00029746
0.000310423
0.000320365
0.000327685
0.000293047
0.000291777
0.000290296
0.000289873
0.000296096
0.000312266
0.00013655
0.000148887
0.000158705
0.000190591
0.000205925
0.000222832
0.000242781
0.000263633
0.000283825
0.000268853
0.000281376
0.000292345
0.000295992
0.000306114
0.000137357
0.000148926
0.000162896
0.000176193
0.000190299
0.000209981
0.000234113
0.000250445
0.000271498
0.000278938
0.000295893
0.000311857
0.000335916
0.000369165
0.000456592
0.000444713
0.000437257
0.000296262
0.000341623
0.000352233
0.000363945
0.000380349
0.000396693
0.000412514
0.00042389
0.000433453
0.000438648
0.000437286
0.00043215
0.000425913
0.000401389
0.000311263
0.000348952
0.000350781
0.000357569
0.000366603
0.000377618
0.000388699
0.000399087
0.000407843
0.000415043
0.000418403
0.000417269
0.000413682
0.00040985
0.000407298
0.000379029